       N       E                     dE             d eps       ncg     rms          rms(c)
DAV:   1     0.349136366823E+04    0.34914E+04   -0.15409E+05  4352   0.123E+03
DAV:   2     0.325828396104E+03   -0.31655E+04   -0.30469E+04  4336   0.364E+02
DAV:   3    -0.249044202414E+02   -0.35073E+03   -0.34112E+03  4608   0.156E+02
DAV:   4    -0.392977732316E+02   -0.14393E+02   -0.14286E+02  4592   0.340E+01
DAV:   5    -0.399683249557E+02   -0.67055E+00   -0.67037E+00  5968   0.632E+00    0.289E+01
RMM:   6    -0.275033766578E+02    0.12465E+02   -0.25016E+01  4110   0.875E+00    0.155E+01
RMM:   7    -0.254720386740E+02    0.20313E+01   -0.19633E+00  4151   0.286E+00    0.104E+01
RMM:   8    -0.220405702267E+02    0.34315E+01   -0.16905E+00  4108   0.208E+00    0.640E+00
RMM:   9    -0.229490056084E+02   -0.90844E+00   -0.16812E-01  4484   0.796E-01    0.536E+00
RMM:  10    -0.242752208318E+02   -0.13262E+01   -0.13825E-01  4144   0.715E-01    0.476E+00
RMM:  11    -0.296324393217E+02   -0.53572E+01   -0.19621E+00  4106   0.163E+00    0.306E+00
RMM:  12    -0.323575400538E+02   -0.27251E+01   -0.20409E+00  4107   0.167E+00    0.167E+00
RMM:  13    -0.338415925973E+02   -0.14841E+01   -0.12304E+00  4120   0.105E+00    0.131E+00
RMM:  14    -0.349497080716E+02   -0.11081E+01   -0.71841E-01  4147   0.764E-01    0.105E+00
RMM:  15    -0.362562795859E+02   -0.13066E+01   -0.69731E-01  4142   0.743E-01    0.790E-01
RMM:  16    -0.373030912700E+02   -0.10468E+01   -0.30959E-01  4148   0.487E-01    0.638E-01
RMM:  17    -0.389893906394E+02   -0.16863E+01   -0.30153E-01  4136   0.462E-01    0.708E-01
RMM:  18    -0.396719205698E+02   -0.68253E+00   -0.54927E+00  4296   0.720E-01    0.123E+00
RMM:  19    -0.406568214342E+02   -0.98490E+00   -0.17049E+01  4207   0.129E+00    0.916E-01
RMM:  20    -0.404795391484E+02    0.17728E+00   -0.23358E+01  4278   0.180E+00    0.113E+00
RMM:  21    -0.414967356898E+02   -0.10172E+01   -0.32961E+01  3183   0.218E+00    0.213E+00
RMM:  22    -0.409138285763E+02    0.58291E+00   -0.48932E+01  2959   0.287E+00    0.171E+00
RMM:  23    -0.416372938391E+02   -0.72347E+00   -0.34657E+01  4171   0.208E+00    0.223E+00
RMM:  24    -0.418555584182E+02   -0.21826E+00   -0.37970E+01  4025   0.228E+00    0.124E+00
RMM:  25    -0.430561591610E+02   -0.12006E+01   -0.34986E+01  2941   0.206E+00    0.167E+00
RMM:  26    -0.437619710675E+02   -0.70581E+00   -0.23314E+01  4161   0.171E+00    0.123E+00
RMM:  27    -0.427683313194E+02    0.99364E+00   -0.28887E+01  4218   0.183E+00    0.100E+00
RMM:  28    -0.431224325420E+02   -0.35410E+00   -0.38022E+01  3898   0.221E+00    0.106E+00
RMM:  29    -0.417111856758E+02    0.14112E+01   -0.43351E+01  3874   0.272E+00    0.106E+00
RMM:  30    -0.416630139823E+02    0.48172E-01   -0.61463E+01  3159   0.317E+00    0.977E-01
RMM:  31    -0.414719782992E+02    0.19104E+00   -0.45244E+01  2914   0.270E+00    0.134E+00
RMM:  32    -0.412949610960E+02    0.17702E+00   -0.50810E+01  3526   0.276E+00    0.112E+00
RMM:  33    -0.409950864916E+02    0.29987E+00   -0.34696E+01  3189   0.218E+00    0.100E+00
RMM:  34    -0.417560716068E+02   -0.76099E+00   -0.60009E+01  3057   0.308E+00    0.973E-01
RMM:  35    -0.410383255112E+02    0.71775E+00   -0.48591E+01  4173   0.272E+00    0.167E+00
RMM:  36    -0.414798291054E+02   -0.44150E+00   -0.64724E+01  3107   0.335E+00    0.916E-01
RMM:  37    -0.414909702440E+02   -0.11141E-01   -0.42532E+01  2858   0.266E+00    0.134E+00
RMM:  38    -0.412950477163E+02    0.19592E+00   -0.61452E+01  2740   0.326E+00    0.963E-01
RMM:  39    -0.428467968401E+02   -0.15517E+01   -0.50833E+01  2879   0.277E+00    0.107E+00
RMM:  40    -0.408952358255E+02    0.19516E+01   -0.45443E+01  2920   0.283E+00    0.160E+00
RMM:  41    -0.411983993508E+02   -0.30316E+00   -0.50745E+01  2816   0.271E+00    0.127E+00
RMM:  42    -0.409364727108E+02    0.26193E+00   -0.67421E+01  2818   0.352E+00    0.105E+00
RMM:  43    -0.412069029082E+02   -0.27043E+00   -0.56285E+01  2952   0.284E+00    0.898E-01
RMM:  44    -0.408900062695E+02    0.31690E+00   -0.43094E+01  4158   0.237E+00    0.754E-01
RMM:  45    -0.411752702622E+02   -0.28526E+00   -0.34440E+01  4214   0.220E+00    0.956E-01
RMM:  46    -0.410455469746E+02    0.12972E+00   -0.46707E+01  4240   0.254E+00    0.930E-01
RMM:  47    -0.418335921079E+02   -0.78805E+00   -0.36077E+01  4179   0.221E+00    0.829E-01
RMM:  48    -0.417215149163E+02    0.11208E+00   -0.34411E+01  4227   0.215E+00    0.126E+00
RMM:  49    -0.421277524522E+02   -0.40624E+00   -0.42411E+01  4183   0.251E+00    0.112E+00
RMM:  50    -0.420625791844E+02    0.65173E-01   -0.49288E+01  3973   0.283E+00    0.116E+00
RMM:  51    -0.417371520993E+02    0.32543E+00   -0.45225E+01  4195   0.256E+00    0.193E+00
RMM:  52    -0.418858777570E+02   -0.14873E+00   -0.50092E+01  4207   0.287E+00    0.150E+00
RMM:  53    -0.413505679606E+02    0.53531E+00   -0.45262E+01  3747   0.278E+00    0.138E+00
RMM:  54    -0.412213079554E+02    0.12926E+00   -0.48226E+01  4209   0.258E+00    0.126E+00
RMM:  55    -0.419388016660E+02   -0.71749E+00   -0.55845E+01  4192   0.314E+00    0.189E+00
RMM:  56    -0.422108118016E+02   -0.27201E+00   -0.57189E+01  4278   0.318E+00    0.158E+00
RMM:  57    -0.421240110720E+02    0.86801E-01   -0.55834E+01  4235   0.311E+00    0.189E+00
RMM:  58    -0.420693352439E+02    0.54676E-01   -0.56106E+01  4220   0.304E+00    0.106E+00
RMM:  59    -0.420422092377E+02    0.27126E-01   -0.52049E+01  4217   0.287E+00    0.129E+00
RMM:  60    -0.425123142730E+02   -0.47011E+00   -0.53649E+01  4276   0.312E+00
   1 F= -.42512314E+02 E0= -.42530892E+02  d E =-.425123E+02  mag=     0.8377
       N       E                     dE             d eps       ncg     rms          rms(c)
DAV:   1    -0.408648551831E+02    0.11774E+01   -0.75231E+01  4096   0.552E+00    0.994E-01
RMM:   2    -0.410728182609E+02   -0.20796E+00   -0.65747E-02  4114   0.449E-01    0.494E-01
RMM:   3    -0.412113262341E+02   -0.13851E+00   -0.52846E-03  4454   0.158E-01    0.299E-01
RMM:   4    -0.413748500516E+02   -0.16352E+00   -0.25590E-03  4233   0.930E-02    0.229E-01
RMM:   5    -0.415124156297E+02   -0.13757E+00   -0.99411E-04  4266   0.591E-02    0.166E-01
RMM:   6    -0.416689004913E+02   -0.15648E+00   -0.34024E-04  4125   0.369E-02    0.128E-01
RMM:   7    -0.417836053051E+02   -0.11470E+00   -0.91514E-05  3552   0.314E-02    0.104E-01
RMM:   8    -0.418723834185E+02   -0.88778E-01    0.15755E-03  3697   0.380E-02    0.799E-02
RMM:   9    -0.419427247498E+02   -0.70341E-01    0.30807E-03  3459   0.368E-02    0.403E-02
RMM:  10    -0.420792552784E+02   -0.13653E+00    0.82022E-02  2954   0.834E-03    0.439E-01
RMM:  11    -0.421019341330E+02   -0.22679E-01   -0.48428E+00  2712   0.443E-01    0.315E-01
RMM:  12    -0.426958616721E+02   -0.59393E+00   -0.23829E+00  2663   0.293E-01    0.696E-01
RMM:  13    -0.426559847897E+02    0.39877E-01   -0.25378E+01  2565   0.171E+00    0.806E-01
RMM:  14    -0.431561439613E+02   -0.50016E+00   -0.23271E+01  2589   0.136E+00    0.893E-01
RMM:  15    -0.432959400152E+02   -0.13980E+00   -0.21612E+01  2639   0.162E+00    0.119E+00
RMM:  16    -0.430166088742E+02    0.27933E+00   -0.22827E+01  2707   0.168E+00    0.742E-01
RMM:  17    -0.437837750794E+02   -0.76717E+00   -0.24206E+01  2698   0.157E+00    0.966E-01
RMM:  18    -0.437297565437E+02    0.54019E-01   -0.24813E+01  2620   0.150E+00    0.651E-01
RMM:  19    -0.440058673229E+02   -0.27611E+00   -0.24023E+01  2648   0.153E+00    0.977E-01
RMM:  20    -0.442963581421E+02   -0.29049E+00   -0.15660E+01  2675   0.114E+00    0.840E-01
RMM:  21    -0.437639893216E+02    0.53237E+00   -0.28190E+01  2629   0.191E+00    0.856E-01
RMM:  22    -0.442883450430E+02   -0.52436E+00   -0.35481E+01  2710   0.231E+00    0.647E-01
RMM:  23    -0.433702982649E+02    0.91805E+00   -0.26003E+01  2677   0.165E+00    0.936E-01
RMM:  24    -0.446832148735E+02   -0.13129E+01   -0.31755E+01  2686   0.210E+00    0.148E+00
RMM:  25    -0.446301574605E+02    0.53057E-01   -0.45276E+01  2719   0.290E+00    0.885E-01
RMM:  26    -0.443025795261E+02    0.32758E+00   -0.34204E+01  2792   0.213E+00    0.734E-01
RMM:  27    -0.444422560780E+02   -0.13968E+00   -0.20255E+01  2634   0.157E+00    0.749E-01
RMM:  28    -0.441185635883E+02    0.32369E+00   -0.37253E+01  2696   0.207E+00    0.970E-01
RMM:  29    -0.432393751895E+02    0.87919E+00   -0.35465E+01  2691   0.225E+00    0.896E-01
RMM:  30    -0.442166699798E+02   -0.97729E+00   -0.45447E+01  2698   0.244E+00    0.993E-01
RMM:  31    -0.436094035187E+02    0.60727E+00   -0.34778E+01  2661   0.223E+00    0.908E-01
RMM:  32    -0.437380682774E+02   -0.12866E+00   -0.45593E+01  2743   0.250E+00    0.100E+00
RMM:  33    -0.429229442742E+02    0.81512E+00   -0.53289E+01  2756   0.289E+00    0.769E-01
RMM:  34    -0.431156848200E+02   -0.19274E+00   -0.40794E+01  2738   0.223E+00    0.119E+00
RMM:  35    -0.431014030066E+02    0.14282E-01   -0.36444E+01  2688   0.216E+00    0.680E-01
RMM:  36    -0.427766981656E+02    0.32470E+00   -0.30408E+01  2629   0.172E+00    0.863E-01
RMM:  37    -0.437717465201E+02   -0.99505E+00   -0.16511E+01  2629   0.132E+00    0.146E+00
RMM:  38    -0.436385446769E+02    0.13320E+00   -0.40980E+01  2708   0.257E+00    0.915E-01
RMM:  39    -0.431426208730E+02    0.49592E+00   -0.42393E+01  2739   0.237E+00    0.633E-01
RMM:  40    -0.435534564984E+02   -0.41084E+00   -0.29139E+01  2598   0.167E+00    0.976E-01
RMM:  41    -0.429587155131E+02    0.59474E+00   -0.33803E+01  2656   0.205E+00    0.748E-01
RMM:  42    -0.431090802832E+02   -0.15036E+00   -0.42460E+01  2629   0.227E+00    0.949E-01
RMM:  43    -0.435833379273E+02   -0.47426E+00   -0.38580E+01  2735   0.214E+00    0.111E+00
RMM:  44    -0.435347959689E+02    0.48542E-01   -0.36984E+01  2644   0.228E+00    0.932E-01
RMM:  45    -0.436978281795E+02   -0.16303E+00   -0.38261E+01  2655   0.226E+00    0.966E-01
RMM:  46    -0.428223461893E+02    0.87548E+00   -0.26010E+01  2660   0.176E+00    0.103E+00
RMM:  47    -0.427003502387E+02    0.12200E+00   -0.48217E+01  2708   0.262E+00    0.612E-01
RMM:  48    -0.433017693855E+02   -0.60142E+00   -0.32565E+01  2694   0.184E+00    0.121E+00
RMM:  49    -0.431107036415E+02    0.19107E+00   -0.39559E+01  2625   0.227E+00    0.703E-01
RMM:  50    -0.432362478584E+02   -0.12554E+00   -0.29100E+01  2658   0.169E+00    0.558E-01
RMM:  51    -0.432114601183E+02    0.24788E-01   -0.22179E+01  2624   0.151E+00    0.866E-01
RMM:  52    -0.437000343811E+02   -0.48857E+00   -0.23081E+01  4182   0.158E+00    0.106E+00
RMM:  53    -0.439952295734E+02   -0.29520E+00   -0.34185E+01  4286   0.220E+00    0.109E+00
RMM:  54    -0.436423523230E+02    0.35288E+00   -0.37591E+01  3045   0.232E+00    0.852E-01
RMM:  55    -0.433917133325E+02    0.25064E+00   -0.32839E+01  3771   0.201E+00    0.980E-01
RMM:  56    -0.434583134007E+02   -0.66600E-01   -0.36944E+01  3920   0.212E+00    0.104E+00
RMM:  57    -0.425885302657E+02    0.86978E+00   -0.43150E+01  4219   0.243E+00    0.766E-01
RMM:  58    -0.431902517521E+02   -0.60172E+00   -0.21141E+01  4231   0.152E+00    0.140E+00
RMM:  59    -0.435458730163E+02   -0.35562E+00   -0.32335E+01  4243   0.214E+00    0.915E-01
RMM:  60    -0.430945006298E+02    0.45137E+00   -0.37693E+01  4083   0.227E+00
   2 F= -.43094501E+02 E0= -.43077583E+02  d E =-.582186E+00  mag=     0.1141
       N       E                     dE             d eps       ncg     rms          rms(c)
DAV:   1    -0.419761508126E+02    0.15697E+01   -0.38675E+01  4096   0.633E+00    0.399E-01
RMM:   2    -0.419842919930E+02   -0.81412E-02   -0.47437E-02  4130   0.608E-01    0.176E-01
RMM:   3    -0.419850481442E+02   -0.75615E-03   -0.65007E-03  4718   0.216E-01    0.147E-01
RMM:   4    -0.419850888125E+02   -0.40668E-04   -0.63180E-04  4158   0.768E-02    0.115E-01
RMM:   5    -0.419852340654E+02   -0.14525E-03   -0.54498E-05  3621   0.221E-02    0.101E-01
RMM:   6    -0.419857975906E+02   -0.56353E-03   -0.63678E-05  3848   0.283E-02    0.279E-02
RMM:   7    -0.419860832434E+02   -0.28565E-03    0.12801E-04  2848   0.142E-02    0.244E-02
RMM:   8    -0.419859647657E+02    0.11848E-03    0.67430E-04  2553   0.806E-03    0.190E-02
RMM:   9    -0.420584776108E+02   -0.72513E-01    0.64424E-03  2492   0.454E-03    0.165E-01
RMM:  10    -0.420961870548E+02   -0.37709E-01   -0.16820E+00  2486   0.150E-01    0.331E-01
RMM:  11    -0.426545639634E+02   -0.55838E+00   -0.52460E+00  2505   0.534E-01    0.979E-01
RMM:  12    -0.437490777526E+02   -0.10945E+01   -0.11896E+01  2547   0.906E-01    0.106E+00
RMM:  13    -0.434834011284E+02    0.26568E+00   -0.27516E+01  2637   0.200E+00    0.114E+00
RMM:  14    -0.438916752775E+02   -0.40827E+00   -0.31609E+01  2679   0.196E+00    0.111E+00
RMM:  15    -0.442569440512E+02   -0.36527E+00   -0.21319E+01  2638   0.155E+00    0.110E+00
RMM:  16    -0.451050993342E+02   -0.84816E+00   -0.23092E+01  2701   0.174E+00    0.105E+00
RMM:  17    -0.452285757746E+02   -0.12348E+00   -0.24712E+01  2719   0.184E+00    0.998E-01
RMM:  18    -0.443255210898E+02    0.90305E+00   -0.28340E+01  2686   0.195E+00    0.716E-01
RMM:  19    -0.443631274470E+02   -0.37606E-01   -0.21309E+01  2663   0.155E+00    0.769E-01
RMM:  20    -0.442348784882E+02    0.12825E+00   -0.20192E+01  2640   0.159E+00    0.587E-01
RMM:  21    -0.436904372672E+02    0.54444E+00   -0.23929E+01  2629   0.156E+00    0.767E-01
RMM:  22    -0.435123781430E+02    0.17806E+00   -0.31220E+01  2671   0.191E+00    0.564E-01
RMM:  23    -0.437390065750E+02   -0.22663E+00   -0.15336E+01  2628   0.112E+00    0.123E+00
RMM:  24    -0.440989571833E+02   -0.35995E+00   -0.25056E+01  2573   0.159E+00    0.972E-01
RMM:  25    -0.442645352067E+02   -0.16558E+00   -0.21163E+01  2607   0.152E+00    0.105E+00
RMM:  26    -0.439485178274E+02    0.31602E+00   -0.31690E+01  2654   0.199E+00    0.911E-01
RMM:  27    -0.443777642148E+02   -0.42925E+00   -0.30681E+01  2658   0.205E+00    0.103E+00
RMM:  28    -0.440522160961E+02    0.32555E+00   -0.39097E+01  2716   0.247E+00    0.883E-01
RMM:  29    -0.440994224587E+02   -0.47206E-01   -0.44722E+01  2698   0.255E+00    0.107E+00
RMM:  30    -0.435679149923E+02    0.53151E+00   -0.43176E+01  2692   0.235E+00    0.858E-01
RMM:  31    -0.440553252957E+02   -0.48741E+00   -0.35660E+01  2675   0.228E+00    0.822E-01
RMM:  32    -0.430481524216E+02    0.10072E+01   -0.33596E+01  2650   0.215E+00    0.785E-01
RMM:  33    -0.431695270191E+02   -0.12137E+00   -0.32511E+01  2627   0.199E+00    0.115E+00
RMM:  34    -0.435194480721E+02   -0.34992E+00   -0.42003E+01  2673   0.243E+00    0.873E-01
RMM:  35    -0.435241822627E+02   -0.47342E-02   -0.40752E+01  2691   0.239E+00    0.827E-01
RMM:  36    -0.435909126881E+02   -0.66730E-01   -0.36853E+01  2669   0.223E+00    0.924E-01
RMM:  37    -0.429476887467E+02    0.64322E+00   -0.39097E+01  2742   0.236E+00    0.122E+00
RMM:  38    -0.431567149707E+02   -0.20903E+00   -0.44919E+01  2653   0.243E+00    0.832E-01
RMM:  39    -0.433694972692E+02   -0.21278E+00   -0.30590E+01  2607   0.194E+00    0.143E+00
RMM:  40    -0.430948070095E+02    0.27469E+00   -0.55790E+01  2736   0.292E+00    0.103E+00
RMM:  41    -0.439293495258E+02   -0.83454E+00   -0.47058E+01  2729   0.266E+00    0.143E+00
RMM:  42    -0.433366109123E+02    0.59274E+00   -0.39314E+01  2730   0.241E+00    0.104E+00
RMM:  43    -0.436750781675E+02   -0.33847E+00   -0.44964E+01  2666   0.259E+00    0.931E-01
RMM:  44    -0.437329498406E+02   -0.57872E-01   -0.40068E+01  2721   0.233E+00    0.985E-01
RMM:  45    -0.444073213891E+02   -0.67437E+00   -0.33116E+01  2751   0.214E+00    0.110E+00
RMM:  46    -0.440733405194E+02    0.33398E+00   -0.42345E+01  2735   0.245E+00    0.116E+00
RMM:  47    -0.436393104869E+02    0.43403E+00   -0.56889E+01  2803   0.314E+00    0.127E+00
RMM:  48    -0.432338482002E+02    0.40546E+00   -0.38141E+01  2707   0.230E+00    0.106E+00
RMM:  49    -0.427961840078E+02    0.43766E+00   -0.50423E+01  2710   0.270E+00    0.772E-01
RMM:  50    -0.432626081838E+02   -0.46642E+00   -0.26162E+01  2685   0.181E+00    0.939E-01
RMM:  51    -0.432421262688E+02    0.20482E-01   -0.36661E+01  2666   0.219E+00    0.747E-01
RMM:  52    -0.433953874038E+02   -0.15326E+00   -0.21889E+01  4153   0.175E+00    0.129E+00
RMM:  53    -0.434467064441E+02   -0.51319E-01   -0.41097E+01  4273   0.239E+00    0.911E-01
RMM:  54    -0.431399706620E+02    0.30674E+00   -0.44383E+01  4239   0.258E+00    0.831E-01
RMM:  55    -0.432579460150E+02   -0.11798E+00   -0.28138E+01  4170   0.199E+00    0.945E-01
RMM:  56    -0.433669460645E+02   -0.10900E+00   -0.35122E+01  4258   0.228E+00    0.908E-01
RMM:  57    -0.435741616600E+02   -0.20722E+00   -0.37775E+01  4196   0.245E+00    0.981E-01
RMM:  58    -0.441679334474E+02   -0.59377E+00   -0.35236E+01  4252   0.212E+00    0.134E+00
RMM:  59    -0.432879042420E+02    0.88003E+00   -0.44381E+01  4230   0.268E+00    0.120E+00
RMM:  60    -0.436492740298E+02   -0.36137E+00   -0.44768E+01  4210   0.255E+00
   3 F= -.43649274E+02 E0= -.43658786E+02  d E =-.113696E+01  mag=     0.0589
       N       E                     dE             d eps       ncg     rms          rms(c)
DAV:   1    -0.419865076112E+02    0.13014E+01   -0.76308E+01  4096   0.115E+01    0.706E-01
RMM:   2    -0.420154883350E+02   -0.28981E-01   -0.17789E-01  4142   0.122E+00    0.290E-01
RMM:   3    -0.420182731266E+02   -0.27848E-02   -0.25217E-02  4622   0.420E-01    0.284E-01
RMM:   4    -0.420164999420E+02    0.17732E-02   -0.26576E-03  4193   0.162E-01    0.216E-01
RMM:   5    -0.420165013172E+02   -0.13752E-05   -0.27710E-04  4582   0.373E-02    0.195E-01
RMM:   6    -0.420166371247E+02   -0.13581E-03   -0.10904E-04  4034   0.295E-02    0.693E-02
RMM:   7    -0.420166982816E+02   -0.61157E-04   -0.10744E-04  4100   0.353E-02    0.787E-02
RMM:   8    -0.420164097614E+02    0.28852E-03    0.64294E-04  2783   0.119E-02    0.479E-02
RMM:   9    -0.420122240770E+02    0.41857E-02    0.16301E-02  2492   0.500E-03    0.271E-02
RMM:  10    -0.420732571167E+02   -0.61033E-01    0.12237E-01  2488  -0.787E-03    0.398E-01
RMM:  11    -0.424001757289E+02   -0.32692E+00   -0.31604E+00  2518   0.333E-01    0.464E-01
RMM:  12    -0.430505523330E+02   -0.65038E+00   -0.13773E+01  2534   0.905E-01    0.809E-01
RMM:  13    -0.433510437899E+02   -0.30049E+00   -0.18332E+01  2603   0.142E+00    0.780E-01
RMM:  14    -0.437191296006E+02   -0.36809E+00   -0.18239E+01  2642   0.129E+00    0.106E+00
RMM:  15    -0.436014171332E+02    0.11771E+00   -0.15725E+01  2685   0.137E+00    0.104E+00
RMM:  16    -0.438571763924E+02   -0.25576E+00   -0.20653E+01  2650   0.151E+00    0.966E-01
RMM:  17    -0.451034496815E+02   -0.12463E+01   -0.24683E+01  2638   0.185E+00    0.149E+00
RMM:  18    -0.447764837293E+02    0.32697E+00   -0.28195E+01  2698   0.203E+00    0.113E+00
RMM:  19    -0.444302679776E+02    0.34622E+00   -0.33602E+01  2702   0.213E+00    0.830E-01
RMM:  20    -0.441949961183E+02    0.23527E+00   -0.27361E+01  2669   0.173E+00    0.752E-01
RMM:  21    -0.441067338611E+02    0.88262E-01   -0.31160E+01  2652   0.198E+00    0.817E-01
RMM:  22    -0.432455365640E+02    0.86120E+00   -0.32848E+01  2634   0.203E+00    0.599E-01
RMM:  23    -0.438674052806E+02   -0.62187E+00   -0.25249E+01  2628   0.155E+00    0.901E-01
RMM:  24    -0.430328681221E+02    0.83454E+00   -0.40920E+01  2662   0.241E+00    0.944E-01
RMM:  25    -0.431586942571E+02   -0.12583E+00   -0.45420E+01  2670   0.250E+00    0.862E-01
RMM:  26    -0.438814673691E+02   -0.72277E+00   -0.39341E+01  2665   0.226E+00    0.950E-01
RMM:  27    -0.428965369007E+02    0.98493E+00   -0.35706E+01  2609   0.226E+00    0.511E-01
RMM:  28    -0.429940905404E+02   -0.97554E-01   -0.19413E+01  2631   0.133E+00    0.961E-01
RMM:  29    -0.432028303007E+02   -0.20874E+00   -0.27533E+01  2582   0.164E+00    0.791E-01
RMM:  30    -0.437572678143E+02   -0.55444E+00   -0.35563E+01  2639   0.200E+00    0.963E-01
RMM:  31    -0.434389076096E+02    0.31836E+00   -0.41960E+01  2655   0.242E+00    0.900E-01
RMM:  32    -0.430789436384E+02    0.35996E+00   -0.42489E+01  2688   0.242E+00    0.799E-01
RMM:  33    -0.436018717357E+02   -0.52293E+00   -0.36529E+01  2623   0.214E+00    0.992E-01
RMM:  34    -0.435666739377E+02    0.35198E-01   -0.35295E+01  2648   0.228E+00    0.113E+00
RMM:  35    -0.441277464484E+02   -0.56107E+00   -0.32851E+01  2631   0.223E+00    0.816E-01
RMM:  36    -0.433872661293E+02    0.74048E+00   -0.30619E+01  2691   0.203E+00    0.878E-01
RMM:  37    -0.433453904920E+02    0.41876E-01   -0.38529E+01  2677   0.239E+00    0.675E-01
RMM:  38    -0.437007886010E+02   -0.35540E+00   -0.33898E+01  2645   0.189E+00    0.146E+00
RMM:  39    -0.440024070377E+02   -0.30162E+00   -0.45327E+01  2705   0.280E+00    0.125E+00
RMM:  40    -0.431861686800E+02    0.81624E+00   -0.62352E+01  2755   0.333E+00    0.108E+00
RMM:  41    -0.432428999611E+02   -0.56731E-01   -0.32797E+01  2717   0.190E+00    0.960E-01
RMM:  42    -0.432647935763E+02   -0.21894E-01   -0.30882E+01  2626   0.186E+00    0.701E-01
RMM:  43    -0.435899509808E+02   -0.32516E+00   -0.28413E+01  2664   0.172E+00    0.101E+00
RMM:  44    -0.434968048321E+02    0.93146E-01   -0.25907E+01  2615   0.175E+00    0.623E-01
RMM:  45    -0.434730269621E+02    0.23778E-01   -0.20871E+01  2654   0.143E+00    0.111E+00
RMM:  46    -0.431146780063E+02    0.35835E+00   -0.45103E+01  2675   0.266E+00    0.801E-01
RMM:  47    -0.437840197140E+02   -0.66934E+00   -0.32989E+01  2742   0.202E+00    0.942E-01
RMM:  48    -0.437314560868E+02    0.52564E-01   -0.33800E+01  2632   0.210E+00    0.837E-01
RMM:  49    -0.433336526272E+02    0.39780E+00   -0.40575E+01  2670   0.222E+00    0.100E+00
RMM:  50    -0.430236748614E+02    0.30998E+00   -0.38344E+01  2722   0.231E+00    0.551E-01
RMM:  51    -0.432338185033E+02   -0.21014E+00   -0.24191E+01  2667   0.154E+00    0.964E-01
RMM:  52    -0.436733657220E+02   -0.43955E+00   -0.34727E+01  4207   0.211E+00    0.941E-01
RMM:  53    -0.433660325942E+02    0.30733E+00   -0.30356E+01  4249   0.187E+00    0.796E-01
RMM:  54    -0.433995650146E+02   -0.33532E-01   -0.37080E+01  4212   0.223E+00    0.111E+00
RMM:  55    -0.434856429156E+02   -0.86078E-01   -0.41289E+01  4146   0.240E+00    0.106E+00
RMM:  56    -0.435735080690E+02   -0.87865E-01   -0.41953E+01  4156   0.259E+00    0.978E-01
RMM:  57    -0.434485473176E+02    0.12496E+00   -0.34034E+01  4201   0.231E+00    0.945E-01
RMM:  58    -0.434226751515E+02    0.25872E-01   -0.37454E+01  4251   0.234E+00    0.911E-01
RMM:  59    -0.440993561307E+02   -0.67668E+00   -0.26090E+01  4198   0.192E+00    0.102E+00
RMM:  60    -0.436518032202E+02    0.44755E+00   -0.35695E+01  4210   0.241E+00
   4 F= -.43651803E+02 E0= -.43654638E+02  d E =-.113949E+01  mag=     0.0127
       N       E                     dE             d eps       ncg     rms          rms(c)
DAV:   1    -0.419620511119E+02    0.21373E+01   -0.13171E+02  4096   0.190E+01    0.137E+00
RMM:   2    -0.420486552402E+02   -0.86604E-01   -0.74402E-01  4215   0.265E+00    0.519E-01
RMM:   3    -0.420612905468E+02   -0.12635E-01   -0.12816E-01  4837   0.873E-01    0.584E-01
RMM:   4    -0.420562658589E+02    0.50247E-02   -0.77519E-03  4233   0.250E-01    0.483E-01
RMM:   5    -0.420555408545E+02    0.72500E-03   -0.79886E-04  4839   0.653E-02    0.420E-01
RMM:   6    -0.420563694834E+02   -0.82863E-03   -0.13409E-04  4145   0.436E-02    0.154E-01
RMM:   7    -0.420574495584E+02   -0.10801E-02   -0.75004E-05  4110   0.886E-02    0.252E-01
RMM:   8    -0.420575002707E+02   -0.50712E-04    0.15160E-03  3652   0.235E-02    0.163E-01
RMM:   9    -0.420543303910E+02    0.31699E-02    0.58681E-03  2818   0.111E-02    0.707E-02
RMM:  10    -0.422358711023E+02   -0.18154E+00    0.13472E-01  2565  -0.745E-03    0.495E-01
RMM:  11    -0.432826571881E+02   -0.10468E+01   -0.45644E+00  2532   0.435E-01    0.638E-01
RMM:  12    -0.438966968296E+02   -0.61404E+00   -0.15507E+01  2715   0.119E+00    0.115E+00
RMM:  13    -0.431607192752E+02    0.73598E+00   -0.44290E+01  2730   0.277E+00    0.921E-01
RMM:  14    -0.435334731891E+02   -0.37275E+00   -0.33886E+01  2702   0.226E+00    0.902E-01
RMM:  15    -0.434780712779E+02    0.55402E-01   -0.19808E+01  2626   0.157E+00    0.695E-01
RMM:  16    -0.448322553180E+02   -0.13542E+01   -0.18337E+01  2634   0.128E+00    0.680E-01
RMM:  17    -0.448245684565E+02    0.76869E-02   -0.30821E+01  2700   0.190E+00    0.820E-01
RMM:  18    -0.433484040742E+02    0.14762E+01   -0.26323E+01  2673   0.186E+00    0.961E-01
RMM:  19    -0.434095924909E+02   -0.61188E-01   -0.29623E+01  2655   0.176E+00    0.995E-01
RMM:  20    -0.441313813582E+02   -0.72179E+00   -0.23048E+01  2691   0.167E+00    0.140E+00
RMM:  21    -0.434582840279E+02    0.67310E+00   -0.31122E+01  2686   0.210E+00    0.919E-01
RMM:  22    -0.445214333986E+02   -0.10631E+01   -0.30231E+01  2695   0.199E+00    0.149E+00
RMM:  23    -0.446929753350E+02   -0.17154E+00   -0.31424E+01  2676   0.222E+00    0.102E+00
RMM:  24    -0.439293061000E+02    0.76367E+00   -0.41147E+01  2707   0.247E+00    0.545E-01
RMM:  25    -0.435057373378E+02    0.42357E+00   -0.24803E+01  2698   0.154E+00    0.109E+00
RMM:  26    -0.438353778549E+02   -0.32964E+00   -0.23932E+01  2648   0.181E+00    0.101E+00
RMM:  27    -0.433701388329E+02    0.46524E+00   -0.51556E+01  2624   0.287E+00    0.869E-01
RMM:  28    -0.437360696658E+02   -0.36593E+00   -0.35920E+01  2715   0.209E+00    0.902E-01
RMM:  29    -0.430017541009E+02    0.73432E+00   -0.31635E+01  2675   0.192E+00    0.710E-01
RMM:  30    -0.434681612141E+02   -0.46641E+00   -0.18632E+01  2582   0.143E+00    0.880E-01
RMM:  31    -0.436192989715E+02   -0.15114E+00   -0.33239E+01  2594   0.211E+00    0.862E-01
RMM:  32    -0.432389636277E+02    0.38034E+00   -0.48404E+01  2699   0.265E+00    0.764E-01
RMM:  33    -0.436149907392E+02   -0.37603E+00   -0.31500E+01  2653   0.195E+00    0.131E+00
RMM:  34    -0.439478391500E+02   -0.33285E+00   -0.44629E+01  2739   0.257E+00    0.679E-01
RMM:  35    -0.433981088705E+02    0.54973E+00   -0.31548E+01  2668   0.198E+00    0.615E-01
RMM:  36    -0.432433612585E+02    0.15475E+00   -0.29056E+01  2647   0.179E+00    0.137E+00
RMM:  37    -0.440521821260E+02   -0.80882E+00   -0.33259E+01  2643   0.209E+00    0.128E+00
RMM:  38    -0.435607276733E+02    0.49145E+00   -0.34534E+01  2681   0.193E+00    0.799E-01
RMM:  39    -0.427613009276E+02    0.79943E+00   -0.40532E+01  2731   0.231E+00    0.618E-01
RMM:  40    -0.431261714998E+02   -0.36487E+00   -0.33293E+01  2668   0.191E+00    0.710E-01
RMM:  41    -0.433394519571E+02   -0.21328E+00   -0.26114E+01  2588   0.180E+00    0.741E-01
RMM:  42    -0.429979279566E+02    0.34152E+00   -0.38003E+01  2591   0.232E+00    0.732E-01
RMM:  43    -0.431220247389E+02   -0.12410E+00   -0.34326E+01  2629   0.207E+00    0.795E-01
RMM:  44    -0.438209838923E+02   -0.69896E+00   -0.35723E+01  2598   0.203E+00    0.109E+00
RMM:  45    -0.437385258698E+02    0.82458E-01   -0.39492E+01  2678   0.230E+00    0.830E-01
RMM:  46    -0.428268574262E+02    0.91167E+00   -0.37586E+01  2651   0.225E+00    0.642E-01
RMM:  47    -0.429798288748E+02   -0.15297E+00   -0.29819E+01  2769   0.171E+00    0.649E-01
RMM:  48    -0.439421226510E+02   -0.96229E+00   -0.29254E+01  2614   0.180E+00    0.899E-01
RMM:  49    -0.442892782186E+02   -0.34716E+00   -0.43615E+01  2608   0.258E+00    0.888E-01
RMM:  50    -0.439898004924E+02    0.29948E+00   -0.31401E+01  2723   0.219E+00    0.122E+00
RMM:  51    -0.433665009980E+02    0.62330E+00   -0.56473E+01  2747   0.309E+00    0.757E-01
RMM:  52    -0.434669235541E+02   -0.10042E+00   -0.36092E+01  4201   0.236E+00    0.102E+00
RMM:  53    -0.431360241926E+02    0.33090E+00   -0.48005E+01  4329   0.281E+00    0.886E-01
RMM:  54    -0.427644156566E+02    0.37161E+00   -0.24158E+01  4197   0.170E+00    0.510E-01
RMM:  55    -0.432571800584E+02   -0.49276E+00   -0.18687E+01  4219   0.125E+00    0.107E+00
RMM:  56    -0.432781467951E+02   -0.20967E-01   -0.33364E+01  3135   0.212E+00    0.669E-01
RMM:  57    -0.431808241546E+02    0.97323E-01   -0.29204E+01  4165   0.178E+00    0.105E+00
RMM:  58    -0.433286691023E+02   -0.14784E+00   -0.37757E+01  4252   0.225E+00    0.100E+00
RMM:  59    -0.430391639886E+02    0.28951E+00   -0.48894E+01  4177   0.276E+00    0.812E-01
RMM:  60    -0.433504105953E+02   -0.31125E+00   -0.24105E+01  4229   0.166E+00
   5 F= -.43350411E+02 E0= -.43362819E+02  d E =-.838096E+00  mag=     0.0034
       N       E                     dE             d eps       ncg     rms          rms(c)
DAV:   1    -0.416633469976E+02    0.13758E+01   -0.39614E+02  4096   0.355E+01    0.322E+00
RMM:   2    -0.420169443249E+02   -0.35360E+00   -0.35855E+00  4249   0.563E+00    0.101E+00
RMM:   3    -0.420448520858E+02   -0.27908E-01   -0.56892E-01  4649   0.184E+00    0.126E+00
RMM:   4    -0.420475285183E+02   -0.26764E-02   -0.53477E-02  4365   0.749E-01    0.954E-01
RMM:   5    -0.420482334560E+02   -0.70494E-03   -0.48694E-03  4687   0.162E-01    0.850E-01
RMM:   6    -0.420485448947E+02   -0.31144E-03   -0.80259E-04  4230   0.907E-02    0.515E-01
RMM:   7    -0.420494271528E+02   -0.88226E-03   -0.16387E-03  4164   0.135E-01    0.359E-01
RMM:   8    -0.420474234821E+02    0.20037E-02    0.24097E-03  4244   0.930E-02    0.372E-01
RMM:   9    -0.421540048749E+02   -0.10658E+00   -0.95845E-02  3836   0.267E-02    0.562E-01
RMM:  10    -0.424716341533E+02   -0.31763E+00   -0.34883E+00  2602   0.359E-01    0.659E-01
RMM:  11    -0.433482767549E+02   -0.87664E+00   -0.14720E+01  2693   0.113E+00    0.895E-01
RMM:  12    -0.441003735091E+02   -0.75210E+00   -0.15472E+01  2699   0.129E+00    0.102E+00
RMM:  13    -0.445200471547E+02   -0.41967E+00   -0.17714E+01  2741   0.150E+00    0.106E+00
RMM:  14    -0.451605318835E+02   -0.64048E+00   -0.14338E+01  2705   0.141E+00    0.109E+00
RMM:  15    -0.449587457466E+02    0.20179E+00   -0.20006E+01  2750   0.151E+00    0.741E-01
RMM:  16    -0.442016454037E+02    0.75710E+00   -0.17158E+01  2686   0.124E+00    0.709E-01
RMM:  17    -0.445619360486E+02   -0.36029E+00   -0.22258E+01  2779   0.146E+00    0.905E-01
RMM:  18    -0.442882712675E+02    0.27366E+00   -0.31597E+01  2682   0.207E+00    0.907E-01
RMM:  19    -0.437972801589E+02    0.49099E+00   -0.26147E+01  2667   0.188E+00    0.107E+00
RMM:  20    -0.452418160330E+02   -0.14445E+01   -0.28080E+01  2741   0.198E+00    0.911E-01
RMM:  21    -0.452578828483E+02   -0.16067E-01   -0.26261E+01  2741   0.200E+00    0.993E-01
RMM:  22    -0.442230294050E+02    0.10349E+01   -0.30592E+01  2715   0.216E+00    0.834E-01
RMM:  23    -0.452638090798E+02   -0.10408E+01   -0.31295E+01  2690   0.209E+00    0.114E+00
RMM:  24    -0.449874278371E+02    0.27638E+00   -0.39172E+01  2719   0.240E+00    0.144E+00
RMM:  25    -0.452489717771E+02   -0.26154E+00   -0.47786E+01  2781   0.294E+00    0.113E+00
RMM:  26    -0.454133707256E+02   -0.16440E+00   -0.42086E+01  2801   0.268E+00    0.990E-01
RMM:  27    -0.440570805443E+02    0.13563E+01   -0.35350E+01  2753   0.231E+00    0.901E-01
RMM:  28    -0.442083744746E+02   -0.15129E+00   -0.45157E+01  2745   0.261E+00    0.121E+00
RMM:  29    -0.436130774236E+02    0.59530E+00   -0.37537E+01  2776   0.222E+00    0.973E-01
RMM:  30    -0.441399103738E+02   -0.52683E+00   -0.41440E+01  2666   0.240E+00    0.121E+00
RMM:  31    -0.441497749351E+02   -0.98646E-02   -0.39003E+01  2711   0.233E+00    0.955E-01
RMM:  32    -0.434120585113E+02    0.73772E+00   -0.39176E+01  2707   0.236E+00    0.910E-01
RMM:  33    -0.434996425448E+02   -0.87584E-01   -0.38008E+01  2725   0.219E+00    0.817E-01
RMM:  34    -0.432694112330E+02    0.23023E+00   -0.46174E+01  2598   0.258E+00    0.762E-01
RMM:  35    -0.434390607425E+02   -0.16965E+00   -0.32937E+01  2747   0.202E+00    0.843E-01
RMM:  36    -0.434310013189E+02    0.80594E-02   -0.40099E+01  2671   0.231E+00    0.842E-01
RMM:  37    -0.431979763895E+02    0.23302E+00   -0.38124E+01  2665   0.226E+00    0.648E-01
RMM:  38    -0.430967752849E+02    0.10120E+00   -0.34951E+01  2625   0.196E+00    0.943E-01
RMM:  39    -0.432593716229E+02   -0.16260E+00   -0.22860E+01  2656   0.158E+00    0.897E-01
RMM:  40    -0.430876337603E+02    0.17174E+00   -0.33096E+01  2683   0.205E+00    0.779E-01
RMM:  41    -0.436776543847E+02   -0.59002E+00   -0.41094E+01  2655   0.226E+00    0.679E-01
RMM:  42    -0.430363739609E+02    0.64128E+00   -0.27425E+01  2640   0.168E+00    0.991E-01
RMM:  43    -0.432358566243E+02   -0.19948E+00   -0.36685E+01  2614   0.215E+00    0.869E-01
RMM:  44    -0.430114425656E+02    0.22441E+00   -0.28479E+01  2619   0.180E+00    0.700E-01
RMM:  45    -0.440201100883E+02   -0.10087E+01   -0.21638E+01  2682   0.147E+00    0.997E-01
RMM:  46    -0.438351995136E+02    0.18491E+00   -0.31828E+01  2603   0.203E+00    0.120E+00
RMM:  47    -0.436176892222E+02    0.21751E+00   -0.39768E+01  4174   0.235E+00    0.807E-01
RMM:  48    -0.433168412460E+02    0.30085E+00   -0.36357E+01  2955   0.216E+00    0.770E-01
RMM:  49    -0.436269754374E+02   -0.31013E+00   -0.26090E+01  2900   0.170E+00    0.784E-01
RMM:  50    -0.432867735052E+02    0.34020E+00   -0.20446E+01  3014   0.156E+00    0.780E-01
RMM:  51    -0.430015858580E+02    0.28519E+00   -0.26216E+01  2790   0.173E+00    0.583E-01
RMM:  52    -0.425474393518E+02    0.45415E+00   -0.25915E+01  4229   0.176E+00    0.706E-01
RMM:  53    -0.426324410089E+02   -0.85002E-01   -0.17117E+01  4246   0.123E+00    0.556E-01
RMM:  54    -0.429822163261E+02   -0.34978E+00   -0.25407E+01  4230   0.155E+00    0.664E-01
RMM:  55    -0.424481296729E+02    0.53409E+00   -0.28957E+01  4182   0.176E+00    0.545E-01
RMM:  56    -0.431098787348E+02   -0.66175E+00   -0.21382E+01  4212   0.144E+00    0.986E-01
RMM:  57    -0.437198244726E+02   -0.60995E+00   -0.36759E+01  4185   0.225E+00    0.874E-01
RMM:  58    -0.431894102932E+02    0.53041E+00   -0.35831E+01  3905   0.222E+00    0.689E-01
RMM:  59    -0.430401634074E+02    0.14925E+00   -0.37576E+01  3968   0.215E+00    0.131E+00
RMM:  60    -0.429075123056E+02    0.13265E+00   -0.31065E+01  2982   0.198E+00
   6 F= -.42907512E+02 E0= -.42906058E+02  d E =-.395198E+00  mag=     0.0024
       N       E                     dE             d eps       ncg     rms          rms(c)
DAV:   1    -0.420455546215E+02    0.99461E+00   -0.51583E+01  4096   0.852E+00    0.521E-01
RMM:   2    -0.420644170784E+02   -0.18862E-01   -0.10012E-01  4144   0.879E-01    0.253E-01
RMM:   3    -0.420671523700E+02   -0.27353E-02   -0.14455E-02  4900   0.303E-01    0.229E-01
RMM:   4    -0.420666220003E+02    0.53037E-03   -0.77343E-04  4188   0.694E-02    0.180E-01
RMM:   5    -0.420669707510E+02   -0.34875E-03   -0.66669E-05  3908   0.246E-02    0.147E-01
RMM:   6    -0.420686667226E+02   -0.16960E-02   -0.11402E-04  3983   0.317E-02    0.347E-02
RMM:   7    -0.420692676858E+02   -0.60096E-03    0.11949E-04  2864   0.154E-02    0.394E-02
RMM:   8    -0.420694049081E+02   -0.13722E-03    0.35957E-04  2599   0.101E-02    0.222E-02
RMM:   9    -0.421233509932E+02   -0.53946E-01    0.18625E-03  2560   0.761E-03    0.242E-01
RMM:  10    -0.421059009187E+02    0.17450E-01   -0.28016E+00  2500   0.285E-01    0.184E-01
RMM:  11    -0.426084993555E+02   -0.50260E+00   -0.14032E+00  2503   0.159E-01    0.478E-01
RMM:  12    -0.431621781937E+02   -0.55368E+00   -0.17967E+01  2553   0.115E+00    0.898E-01
RMM:  13    -0.429175053357E+02    0.24467E+00   -0.31233E+01  2654   0.200E+00    0.789E-01
RMM:  14    -0.429120703999E+02    0.54349E-02   -0.15269E+01  2630   0.113E+00    0.663E-01
RMM:  15    -0.433918047842E+02   -0.47973E+00   -0.15242E+01  2603   0.117E+00    0.713E-01
RMM:  16    -0.445249270669E+02   -0.11331E+01   -0.12346E+01  2652   0.110E+00    0.847E-01
RMM:  17    -0.447766738815E+02   -0.25175E+00   -0.21133E+01  2661   0.172E+00    0.103E+00
RMM:  18    -0.445296259680E+02    0.24705E+00   -0.24653E+01  2744   0.185E+00    0.834E-01
RMM:  19    -0.438351785130E+02    0.69445E+00   -0.20167E+01  2727   0.153E+00    0.787E-01
RMM:  20    -0.444838833783E+02   -0.64870E+00   -0.15574E+01  2656   0.125E+00    0.148E+00
RMM:  21    -0.453879811000E+02   -0.90410E+00   -0.49755E+01  2741   0.296E+00    0.109E+00
RMM:  22    -0.442839348767E+02    0.11040E+01   -0.43975E+01  2715   0.259E+00    0.116E+00
RMM:  23    -0.442186389222E+02    0.65296E-01   -0.43209E+01  2781   0.268E+00    0.765E-01
RMM:  24    -0.432296022367E+02    0.98904E+00   -0.35094E+01  2732   0.212E+00    0.636E-01
RMM:  25    -0.429885316420E+02    0.24107E+00   -0.28119E+01  2629   0.177E+00    0.596E-01
RMM:  26    -0.437342139952E+02   -0.74568E+00   -0.33014E+01  2583   0.192E+00    0.928E-01
RMM:  27    -0.434886545636E+02    0.24556E+00   -0.29119E+01  2620   0.202E+00    0.931E-01
RMM:  28    -0.434813191167E+02    0.73354E-02   -0.41290E+01  2667   0.227E+00    0.635E-01
RMM:  29    -0.436800500207E+02   -0.19873E+00   -0.28813E+01  2653   0.170E+00    0.836E-01
RMM:  30    -0.441007051855E+02   -0.42066E+00   -0.35070E+01  2618   0.212E+00    0.103E+00
RMM:  31    -0.435301312832E+02    0.57057E+00   -0.40721E+01  2731   0.247E+00    0.131E+00
RMM:  32    -0.437211029591E+02   -0.19097E+00   -0.49976E+01  2724   0.285E+00    0.139E+00
RMM:  33    -0.442661911765E+02   -0.54509E+00   -0.58030E+01  2710   0.314E+00    0.113E+00
RMM:  34    -0.441924905504E+02    0.73701E-01   -0.40803E+01  2766   0.258E+00    0.110E+00
RMM:  35    -0.430078250811E+02    0.11847E+01   -0.55438E+01  2824   0.291E+00    0.757E-01
RMM:  36    -0.429725931628E+02    0.35232E-01   -0.26920E+01  2710   0.181E+00    0.608E-01
RMM:  37    -0.431093912505E+02   -0.13680E+00   -0.30565E+01  2620   0.177E+00    0.998E-01
RMM:  38    -0.428551358369E+02    0.25426E+00   -0.28552E+01  2629   0.182E+00    0.945E-01
RMM:  39    -0.426229727304E+02    0.23216E+00   -0.39753E+01  2691   0.222E+00    0.937E-01
RMM:  40    -0.431651106705E+02   -0.54214E+00   -0.29666E+01  2685   0.165E+00    0.839E-01
RMM:  41    -0.435458553602E+02   -0.38074E+00   -0.33908E+01  2595   0.199E+00    0.971E-01
RMM:  42    -0.432187889383E+02    0.32707E+00   -0.46703E+01  2740   0.267E+00    0.647E-01
RMM:  43    -0.432654603975E+02   -0.46671E-01   -0.30510E+01  2677   0.183E+00    0.835E-01
RMM:  44    -0.435210819786E+02   -0.25562E+00   -0.37223E+01  2642   0.219E+00    0.143E+00
RMM:  45    -0.430051759793E+02    0.51591E+00   -0.51187E+01  2729   0.277E+00    0.630E-01
RMM:  46    -0.432387455890E+02   -0.23357E+00   -0.26288E+01  2733   0.163E+00    0.732E-01
RMM:  47    -0.429519325573E+02    0.28681E+00   -0.31830E+01  2655   0.197E+00    0.707E-01
RMM:  48    -0.430016585230E+02   -0.49726E-01   -0.35154E+01  2639   0.205E+00    0.112E+00
RMM:  49    -0.432236502639E+02   -0.22199E+00   -0.33444E+01  2734   0.206E+00    0.774E-01
RMM:  50    -0.432992400614E+02   -0.75590E-01   -0.33301E+01  2636   0.207E+00    0.107E+00
RMM:  51    -0.429106529372E+02    0.38859E+00   -0.34999E+01  2693   0.227E+00    0.764E-01
RMM:  52    -0.430959091347E+02   -0.18526E+00   -0.33920E+01  4193   0.206E+00    0.801E-01
RMM:  53    -0.428872521779E+02    0.20866E+00   -0.40866E+01  4296   0.236E+00    0.770E-01
RMM:  54    -0.434699985217E+02   -0.58275E+00   -0.35829E+01  4192   0.214E+00    0.130E+00
RMM:  55    -0.429866150763E+02    0.48338E+00   -0.36840E+01  4042   0.229E+00    0.126E+00
RMM:  56    -0.431611181647E+02   -0.17450E+00   -0.38085E+01  4168   0.220E+00    0.941E-01
RMM:  57    -0.433590828844E+02   -0.19796E+00   -0.39551E+01  4196   0.233E+00    0.993E-01
RMM:  58    -0.434525401584E+02   -0.93457E-01   -0.38250E+01  4264   0.234E+00    0.102E+00
RMM:  59    -0.434793820167E+02   -0.26842E-01   -0.41976E+01  4208   0.249E+00    0.134E+00
RMM:  60    -0.435274511166E+02   -0.48069E-01   -0.47169E+01  3953   0.273E+00
   7 F= -.43527451E+02 E0= -.43530343E+02  d E =-.619939E+00  mag=     0.0051
       N       E                     dE             d eps       ncg     rms          rms(c)
DAV:   1    -0.419895596427E+02    0.14898E+01   -0.16536E+02  4096   0.218E+01    0.159E+00
RMM:   2    -0.420936984456E+02   -0.10414E+00   -0.10233E+00  4247   0.310E+00    0.567E-01
RMM:   3    -0.421059224534E+02   -0.12224E-01   -0.17911E-01  4911   0.993E-01    0.683E-01
RMM:   4    -0.421061195369E+02   -0.19708E-03   -0.36071E-03  4388   0.165E-01    0.542E-01
RMM:   5    -0.421056330678E+02    0.48647E-03   -0.66241E-04  4719   0.631E-02    0.478E-01
RMM:   6    -0.421065879857E+02   -0.95492E-03   -0.67745E-04  4149   0.858E-02    0.126E-01
RMM:   7    -0.421075753984E+02   -0.98741E-03   -0.46409E-04  4123   0.889E-02    0.316E-01
RMM:   8    -0.421074891787E+02    0.86220E-04    0.13279E-03  3467   0.173E-02    0.208E-01
RMM:   9    -0.421110401715E+02   -0.35510E-02    0.80070E-03  3841   0.225E-02    0.119E-01
RMM:  10    -0.423059527570E+02   -0.19491E+00   -0.37093E-01  2552   0.526E-02    0.297E-01
RMM:  11    -0.424923314453E+02   -0.18638E+00   -0.64625E+00  2549   0.525E-01    0.423E-01
RMM:  12    -0.428179952551E+02   -0.32566E+00   -0.11674E+01  2642   0.694E-01    0.688E-01
RMM:  13    -0.429626734854E+02   -0.14468E+00   -0.23678E+01  2597   0.163E+00    0.531E-01
RMM:  14    -0.438216703866E+02   -0.85900E+00   -0.14405E+01  2590   0.116E+00    0.852E-01
RMM:  15    -0.444721884927E+02   -0.65052E+00   -0.96342E+00  2653   0.850E-01    0.724E-01
RMM:  16    -0.443025987730E+02    0.16959E+00   -0.22727E+01  2627   0.153E+00    0.733E-01
RMM:  17    -0.450549576406E+02   -0.75236E+00   -0.20651E+01  2692   0.143E+00    0.948E-01
RMM:  18    -0.440950966726E+02    0.95986E+00   -0.23355E+01  2718   0.174E+00    0.768E-01
RMM:  19    -0.449852036823E+02   -0.89011E+00   -0.15967E+01  2727   0.132E+00    0.109E+00
RMM:  20    -0.450930197618E+02   -0.10782E+00   -0.27410E+01  2696   0.200E+00    0.124E+00
RMM:  21    -0.445398871559E+02    0.55313E+00   -0.39663E+01  2768   0.258E+00    0.929E-01
RMM:  22    -0.443522736771E+02    0.18761E+00   -0.43941E+01  2746   0.250E+00    0.859E-01
RMM:  23    -0.443123126188E+02    0.39961E-01   -0.23721E+01  2762   0.184E+00    0.104E+00
RMM:  24    -0.441816072658E+02    0.13071E+00   -0.23173E+01  2692   0.179E+00    0.793E-01
RMM:  25    -0.442636467585E+02   -0.82039E-01   -0.29249E+01  2666   0.200E+00    0.830E-01
RMM:  26    -0.436111267586E+02    0.65252E+00   -0.43357E+01  2696   0.238E+00    0.865E-01
RMM:  27    -0.442666606709E+02   -0.65553E+00   -0.32817E+01  2654   0.215E+00    0.106E+00
RMM:  28    -0.437784251659E+02    0.48824E+00   -0.44733E+01  2655   0.262E+00    0.909E-01
RMM:  29    -0.440189726209E+02   -0.24055E+00   -0.37570E+01  2698   0.220E+00    0.884E-01
RMM:  30    -0.437294460881E+02    0.28953E+00   -0.39309E+01  2648   0.221E+00    0.804E-01
RMM:  31    -0.429849445329E+02    0.74450E+00   -0.35172E+01  2659   0.215E+00    0.844E-01
RMM:  32    -0.435806566417E+02   -0.59571E+00   -0.29047E+01  2712   0.182E+00    0.106E+00
RMM:  33    -0.433904458548E+02    0.19021E+00   -0.50399E+01  2612   0.275E+00    0.640E-01
RMM:  34    -0.436900410004E+02   -0.29960E+00   -0.31974E+01  2653   0.189E+00    0.859E-01
RMM:  35    -0.432493002616E+02    0.44074E+00   -0.31523E+01  2666   0.196E+00    0.730E-01
RMM:  36    -0.435681142520E+02   -0.31881E+00   -0.32535E+01  2632   0.188E+00    0.113E+00
RMM:  37    -0.431161846093E+02    0.45193E+00   -0.44533E+01  2757   0.254E+00    0.118E+00
RMM:  38    -0.434596574987E+02   -0.34347E+00   -0.47248E+01  2741   0.251E+00    0.118E+00
RMM:  39    -0.430379557192E+02    0.42170E+00   -0.49618E+01  2743   0.290E+00    0.825E-01
RMM:  40    -0.434696970159E+02   -0.43174E+00   -0.47733E+01  2692   0.264E+00    0.812E-01
RMM:  41    -0.435781793349E+02   -0.10848E+00   -0.30256E+01  2710   0.194E+00    0.101E+00
RMM:  42    -0.433922475640E+02    0.18593E+00   -0.45945E+01  2704   0.270E+00    0.668E-01
RMM:  43    -0.430964437481E+02    0.29580E+00   -0.25763E+01  2717   0.175E+00    0.846E-01
RMM:  44    -0.431948075479E+02   -0.98364E-01   -0.44512E+01  2645   0.243E+00    0.875E-01
RMM:  45    -0.434527977409E+02   -0.25799E+00   -0.33834E+01  2744   0.196E+00    0.617E-01
RMM:  46    -0.430746001080E+02    0.37820E+00   -0.27526E+01  2666   0.161E+00    0.734E-01
RMM:  47    -0.433626265943E+02   -0.28803E+00   -0.23886E+01  2848   0.156E+00    0.716E-01
RMM:  48    -0.431625964561E+02    0.20003E+00   -0.39849E+01  2659   0.226E+00    0.675E-01
RMM:  49    -0.434019203365E+02   -0.23932E+00   -0.25229E+01  2609   0.169E+00    0.814E-01
RMM:  50    -0.435259606329E+02   -0.12404E+00   -0.38187E+01  2616   0.214E+00    0.982E-01
RMM:  51    -0.439264981872E+02   -0.40054E+00   -0.36105E+01  2704   0.208E+00    0.107E+00
RMM:  52    -0.437845760052E+02    0.14192E+00   -0.41677E+01  4219   0.263E+00    0.118E+00
RMM:  53    -0.432268303607E+02    0.55775E+00   -0.36277E+01  4256   0.223E+00    0.830E-01
RMM:  54    -0.433848715594E+02   -0.15804E+00   -0.39915E+01  4212   0.225E+00    0.102E+00
RMM:  55    -0.435051718544E+02   -0.12030E+00   -0.34198E+01  3887   0.202E+00    0.130E+00
RMM:  56    -0.435645330925E+02   -0.59361E-01   -0.38949E+01  4156   0.226E+00    0.986E-01
RMM:  57    -0.431900753074E+02    0.37446E+00   -0.38773E+01  4189   0.242E+00    0.114E+00
RMM:  58    -0.431594209066E+02    0.30654E-01   -0.36590E+01  4245   0.216E+00    0.897E-01
RMM:  59    -0.434465189872E+02   -0.28710E+00   -0.29450E+01  4179   0.175E+00    0.790E-01
RMM:  60    -0.427782247048E+02    0.66829E+00   -0.32180E+01  4247   0.195E+00
   8 F= -.42778225E+02 E0= -.42764043E+02  d E =0.129288E+00  mag=     0.0054
       N       E                     dE             d eps       ncg     rms          rms(c)
DAV:   1    -0.416063797808E+02    0.18401E+01   -0.53133E+02  4096   0.405E+01    0.386E+00
RMM:   2    -0.421029351858E+02   -0.49656E+00   -0.51100E+00  4257   0.655E+00    0.121E+00
RMM:   3    -0.421363806547E+02   -0.33445E-01   -0.72892E-01  4439   0.206E+00    0.148E+00
RMM:   4    -0.421422621231E+02   -0.58815E-02   -0.10013E-01  4318   0.110E+00    0.113E+00
RMM:   5    -0.421416984686E+02    0.56365E-03   -0.77020E-03  4832   0.199E-01    0.111E+00
RMM:   6    -0.421418240410E+02   -0.12557E-03   -0.79653E-04  4259   0.888E-02    0.862E-01
RMM:   7    -0.421420933352E+02   -0.26929E-03   -0.21067E-03  4154   0.122E-01    0.307E-01
RMM:   8    -0.421364723091E+02    0.56210E-02    0.64437E-03  4187   0.139E-01    0.491E-01
RMM:   9    -0.421891554731E+02   -0.52683E-01    0.49216E-02  3967   0.258E-02    0.545E-01
RMM:  10    -0.429137976232E+02   -0.72464E+00   -0.21793E+00  3157   0.234E-01    0.572E-01
RMM:  11    -0.430998216342E+02   -0.18602E+00   -0.72478E+00  2567   0.621E-01    0.803E-01
RMM:  12    -0.437304821659E+02   -0.63066E+00   -0.12633E+01  2693   0.109E+00    0.987E-01
RMM:  13    -0.440127916092E+02   -0.28231E+00   -0.19813E+01  2668   0.161E+00    0.937E-01
RMM:  14    -0.441768804623E+02   -0.16409E+00   -0.17556E+01  2794   0.146E+00    0.970E-01
RMM:  15    -0.438548825316E+02    0.32200E+00   -0.28236E+01  2758   0.192E+00    0.661E-01
RMM:  16    -0.432923492598E+02    0.56253E+00   -0.14234E+01  2631   0.103E+00    0.697E-01
RMM:  17    -0.434096355683E+02   -0.11729E+00   -0.32376E+01  2585   0.185E+00    0.831E-01
RMM:  18    -0.442694144240E+02   -0.85978E+00   -0.29341E+01  2679   0.176E+00    0.118E+00
RMM:  19    -0.438572961272E+02    0.41212E+00   -0.21401E+01  2681   0.167E+00    0.863E-01
RMM:  20    -0.437359146933E+02    0.12138E+00   -0.24628E+01  2654   0.175E+00    0.777E-01
RMM:  21    -0.448644311466E+02   -0.11285E+01   -0.21425E+01  2711   0.154E+00    0.896E-01
RMM:  22    -0.447573511565E+02    0.10708E+00   -0.22569E+01  2674   0.182E+00    0.101E+00
RMM:  23    -0.440116460169E+02    0.74571E+00   -0.43621E+01  2772   0.264E+00    0.106E+00
RMM:  24    -0.445192521963E+02   -0.50761E+00   -0.35935E+01  2710   0.235E+00    0.105E+00
RMM:  25    -0.436919589426E+02    0.82729E+00   -0.33369E+01  2716   0.234E+00    0.103E+00
RMM:  26    -0.441504984216E+02   -0.45854E+00   -0.30990E+01  2680   0.209E+00    0.105E+00
RMM:  27    -0.438996847943E+02    0.25081E+00   -0.29358E+01  2733   0.205E+00    0.990E-01
RMM:  28    -0.442982469752E+02   -0.39856E+00   -0.40513E+01  2657   0.228E+00    0.948E-01
RMM:  29    -0.434438941259E+02    0.85435E+00   -0.31327E+01  2709   0.198E+00    0.779E-01
RMM:  30    -0.440618345194E+02   -0.61794E+00   -0.27907E+01  2635   0.177E+00    0.102E+00
RMM:  31    -0.445414093819E+02   -0.47957E+00   -0.38803E+01  2683   0.248E+00    0.156E+00
RMM:  32    -0.443987911125E+02    0.14262E+00   -0.44306E+01  2782   0.279E+00    0.111E+00
RMM:  33    -0.447300926412E+02   -0.33130E+00   -0.40129E+01  2724   0.256E+00    0.143E+00
RMM:  34    -0.445003202971E+02    0.22977E+00   -0.46973E+01  2679   0.280E+00    0.114E+00
RMM:  35    -0.437363356886E+02    0.76398E+00   -0.32255E+01  2686   0.235E+00    0.758E-01
RMM:  36    -0.438443761124E+02   -0.10804E+00   -0.40567E+01  2646   0.235E+00    0.129E+00
RMM:  37    -0.434279744140E+02    0.41640E+00   -0.58004E+01  2725   0.305E+00    0.101E+00
RMM:  38    -0.428106532089E+02    0.61732E+00   -0.49443E+01  2752   0.279E+00    0.617E-01
RMM:  39    -0.431347903013E+02   -0.32414E+00   -0.13702E+01  2795   0.109E+00    0.764E-01
RMM:  40    -0.429552532458E+02    0.17954E+00   -0.25805E+01  2597   0.168E+00    0.817E-01
RMM:  41    -0.434942201069E+02   -0.53897E+00   -0.45124E+01  2667   0.245E+00    0.103E+00
RMM:  42    -0.434376306226E+02    0.56589E-01   -0.53848E+01  2678   0.288E+00    0.118E+00
RMM:  43    -0.433552218639E+02    0.82409E-01   -0.50200E+01  2703   0.283E+00    0.110E+00
RMM:  44    -0.433093571331E+02    0.45865E-01   -0.39417E+01  2712   0.235E+00    0.965E-01
RMM:  45    -0.436438545127E+02   -0.33450E+00   -0.28592E+01  2630   0.183E+00    0.986E-01
RMM:  46    -0.435610234478E+02    0.82831E-01   -0.44153E+01  2723   0.258E+00    0.953E-01
RMM:  47    -0.437759743443E+02   -0.21495E+00   -0.30493E+01  4342   0.203E+00    0.981E-01
RMM:  48    -0.435924624691E+02    0.18351E+00   -0.31171E+01  3073   0.211E+00    0.828E-01
RMM:  49    -0.439179971211E+02   -0.32553E+00   -0.27025E+01  2872   0.180E+00    0.868E-01
RMM:  50    -0.435279535429E+02    0.39004E+00   -0.31378E+01  2904   0.192E+00    0.856E-01
RMM:  51    -0.436519205621E+02   -0.12397E+00   -0.40264E+01  2910   0.233E+00    0.704E-01
RMM:  52    -0.431768814663E+02    0.47504E+00   -0.38852E+01  4210   0.236E+00    0.780E-01
RMM:  53    -0.443046847368E+02   -0.11278E+01   -0.31590E+01  4280   0.210E+00    0.786E-01
RMM:  54    -0.438748074721E+02    0.42988E+00   -0.33975E+01  4211   0.227E+00    0.968E-01
RMM:  55    -0.443207206017E+02   -0.44591E+00   -0.33860E+01  4219   0.219E+00    0.101E+00
RMM:  56    -0.440861971211E+02    0.23452E+00   -0.33147E+01  4251   0.206E+00    0.110E+00
RMM:  57    -0.438081630234E+02    0.27803E+00   -0.45131E+01  4160   0.278E+00    0.777E-01
RMM:  58    -0.434151193965E+02    0.39304E+00   -0.30364E+01  4238   0.200E+00    0.696E-01
RMM:  59    -0.435763430806E+02   -0.16122E+00   -0.24773E+01  4220   0.170E+00    0.818E-01
RMM:  60    -0.442555125323E+02   -0.67917E+00   -0.32075E+01  3933   0.211E+00
   9 F= -.44255513E+02 E0= -.44261513E+02  d E =-.134800E+01  mag=    -0.0073
       N       E                     dE             d eps       ncg     rms          rms(c)
DAV:   1    -0.421009810630E+02    0.14754E+01   -0.88459E+01  4096   0.148E+01    0.113E+00
RMM:   2    -0.421494299375E+02   -0.48449E-01   -0.46859E-01  4238   0.212E+00    0.411E-01
RMM:   3    -0.421568349672E+02   -0.74050E-02   -0.91055E-02  4882   0.705E-01    0.463E-01
RMM:   4    -0.421570745370E+02   -0.23957E-03   -0.21249E-03  4415   0.119E-01    0.364E-01
RMM:   5    -0.421575569717E+02   -0.48243E-03   -0.26699E-04  4500   0.419E-02    0.204E-01
RMM:   6    -0.421588459088E+02   -0.12889E-02   -0.77524E-04  4120   0.918E-02    0.235E-01
RMM:   7    -0.421588755192E+02   -0.29610E-04    0.62528E-04  3671   0.216E-02    0.169E-01
RMM:   8    -0.421585862128E+02    0.28931E-03    0.17943E-03  2658   0.106E-02    0.110E-01
RMM:   9    -0.421552706737E+02    0.33155E-02    0.10423E-02  2480   0.713E-03    0.915E-02
RMM:  10    -0.421496498859E+02    0.56208E-02   -0.52088E-02  2479   0.187E-02    0.831E-02
RMM:  11    -0.427641569431E+02   -0.61451E+00    0.80593E-02  2337   0.921E-03    0.715E-01
RMM:  12    -0.434237783768E+02   -0.65962E+00   -0.97801E+00  2561   0.833E-01    0.984E-01
RMM:  13    -0.432463741143E+02    0.17740E+00   -0.21633E+01  2682   0.172E+00    0.102E+00
RMM:  14    -0.431506879961E+02    0.95686E-01   -0.25861E+01  2684   0.187E+00    0.111E+00
RMM:  15    -0.437204587746E+02   -0.56977E+00   -0.15043E+01  2665   0.112E+00    0.867E-01
RMM:  16    -0.445600618626E+02   -0.83960E+00   -0.25533E+01  2655   0.167E+00    0.937E-01
RMM:  17    -0.448961623246E+02   -0.33610E+00   -0.30736E+01  2671   0.213E+00    0.984E-01
RMM:  18    -0.430271084609E+02    0.18691E+01   -0.44986E+01  2693   0.250E+00    0.525E-01
RMM:  19    -0.433396148305E+02   -0.31251E+00   -0.76845E+00  2720   0.732E-01    0.119E+00
RMM:  20    -0.434259048625E+02   -0.86290E-01   -0.24887E+01  2585   0.168E+00    0.739E-01
RMM:  21    -0.437025692906E+02   -0.27666E+00   -0.31194E+01  2677   0.187E+00    0.846E-01
RMM:  22    -0.434109143729E+02    0.29165E+00   -0.25935E+01  2602   0.186E+00    0.774E-01
RMM:  23    -0.436279986520E+02   -0.21708E+00   -0.38158E+01  2646   0.213E+00    0.727E-01
RMM:  24    -0.432550721533E+02    0.37293E+00   -0.27594E+01  2616   0.182E+00    0.681E-01
RMM:  25    -0.434703187049E+02   -0.21525E+00   -0.35667E+01  2637   0.209E+00    0.611E-01
RMM:  26    -0.436192906434E+02   -0.14897E+00   -0.21713E+01  2598   0.141E+00    0.828E-01
RMM:  27    -0.448618631853E+02   -0.12426E+01   -0.28100E+01  2615   0.187E+00    0.868E-01
RMM:  28    -0.442760826300E+02    0.58578E+00   -0.34199E+01  2644   0.217E+00    0.869E-01
RMM:  29    -0.440859129384E+02    0.19017E+00   -0.36544E+01  2716   0.211E+00    0.702E-01
RMM:  30    -0.438858564571E+02    0.20006E+00   -0.29989E+01  2663   0.187E+00    0.106E+00
RMM:  31    -0.441742245202E+02   -0.28837E+00   -0.49128E+01  2679   0.285E+00    0.101E+00
RMM:  32    -0.442578155968E+02   -0.83591E-01   -0.45121E+01  2713   0.276E+00    0.104E+00
RMM:  33    -0.436218957832E+02    0.63592E+00   -0.37193E+01  2765   0.234E+00    0.790E-01
RMM:  34    -0.442106384108E+02   -0.58874E+00   -0.23588E+01  2702   0.164E+00    0.871E-01
RMM:  35    -0.439913728710E+02    0.21927E+00   -0.31692E+01  2711   0.202E+00    0.139E+00
RMM:  36    -0.439119452468E+02    0.79428E-01   -0.49402E+01  2670   0.291E+00    0.810E-01
RMM:  37    -0.436924916334E+02    0.21945E+00   -0.31041E+01  2666   0.207E+00    0.965E-01
RMM:  38    -0.438105849234E+02   -0.11809E+00   -0.37608E+01  2651   0.230E+00    0.685E-01
RMM:  39    -0.435567888954E+02    0.25380E+00   -0.27373E+01  2699   0.175E+00    0.810E-01
RMM:  40    -0.436107722802E+02   -0.53983E-01   -0.36848E+01  2618   0.222E+00    0.783E-01
RMM:  41    -0.431045866356E+02    0.50619E+00   -0.31958E+01  2642   0.194E+00    0.844E-01
RMM:  42    -0.430821312331E+02    0.22455E-01   -0.29341E+01  2640   0.171E+00    0.914E-01
RMM:  43    -0.429167291946E+02    0.16540E+00   -0.33549E+01  2672   0.197E+00    0.910E-01
RMM:  44    -0.432276718480E+02   -0.31094E+00   -0.34371E+01  2696   0.204E+00    0.106E+00
RMM:  45    -0.433750538211E+02   -0.14738E+00   -0.30248E+01  2699   0.181E+00    0.590E-01
RMM:  46    -0.437282104407E+02   -0.35316E+00   -0.18907E+01  2625   0.144E+00    0.107E+00
RMM:  47    -0.437025485592E+02    0.25662E-01   -0.46383E+01  2846   0.268E+00    0.915E-01
RMM:  48    -0.430709089710E+02    0.63164E+00   -0.53079E+01  2772   0.288E+00    0.983E-01
RMM:  49    -0.436935785699E+02   -0.62267E+00   -0.27357E+01  2730   0.185E+00    0.999E-01
RMM:  50    -0.435387338334E+02    0.15484E+00   -0.35822E+01  2658   0.211E+00    0.822E-01
RMM:  51    -0.436054552978E+02   -0.66721E-01   -0.33529E+01  2651   0.214E+00    0.866E-01
RMM:  52    -0.437291003924E+02   -0.12365E+00   -0.42277E+01  4187   0.256E+00    0.959E-01
RMM:  53    -0.436957687352E+02    0.33332E-01   -0.51871E+01  4287   0.298E+00    0.770E-01
RMM:  54    -0.435327951768E+02    0.16297E+00   -0.35330E+01  4183   0.216E+00    0.731E-01
RMM:  55    -0.429161522429E+02    0.61664E+00   -0.40887E+01  4247   0.229E+00    0.521E-01
RMM:  56    -0.426997233783E+02    0.21643E+00   -0.27144E+01  4184   0.165E+00    0.532E-01
RMM:  57    -0.428095132885E+02   -0.10979E+00   -0.31720E+01  4199   0.179E+00    0.863E-01
RMM:  58    -0.433769331063E+02   -0.56742E+00   -0.19990E+01  4257   0.140E+00    0.713E-01
RMM:  59    -0.433655227033E+02    0.11410E-01   -0.30677E+01  4092   0.201E+00    0.639E-01
RMM:  60    -0.430974982773E+02    0.26802E+00   -0.17115E+01  4157   0.125E+00
  10 F= -.43097498E+02 E0= -.43094324E+02  d E =0.115801E+01  mag=    -0.0073
       N       E                     dE             d eps       ncg     rms          rms(c)
DAV:   1    -0.419779271130E+02    0.13876E+01   -0.18156E+02  4096   0.239E+01    0.236E+00
RMM:   2    -0.421584698769E+02   -0.18054E+00   -0.18318E+00  4259   0.405E+00    0.726E-01
RMM:   3    -0.421866430315E+02   -0.28173E-01   -0.37599E-01  4903   0.137E+00    0.101E+00
RMM:   4    -0.421850800125E+02    0.15630E-02   -0.84040E-03  4300   0.250E-01    0.822E-01
RMM:   5    -0.421830290817E+02    0.20509E-02   -0.13788E-03  4827   0.933E-02    0.732E-01
RMM:   6    -0.421833590635E+02   -0.32998E-03   -0.88191E-04  4157   0.929E-02    0.171E-01
RMM:   7    -0.421839672955E+02   -0.60823E-03   -0.18866E-03  4119   0.143E-01    0.487E-01
RMM:   8    -0.421859699242E+02   -0.20026E-02    0.33198E-03  3899   0.264E-02    0.336E-01
RMM:   9    -0.422136676173E+02   -0.27698E-01   -0.28790E-01  2763   0.467E-02    0.367E-01
RMM:  10    -0.425011196399E+02   -0.28745E+00   -0.14676E+00  2495   0.171E-01    0.455E-01
RMM:  11    -0.431050707402E+02   -0.60395E+00   -0.44034E+00  2671   0.428E-01    0.946E-01
RMM:  12    -0.430242105154E+02    0.80860E-01   -0.21966E+01  2751   0.158E+00    0.690E-01
RMM:  13    -0.430612769793E+02   -0.37066E-01   -0.20189E+01  2633   0.152E+00    0.746E-01
RMM:  14    -0.441104161019E+02   -0.10491E+01   -0.72999E+00  2604   0.751E-01    0.971E-01
RMM:  15    -0.449374666525E+02   -0.82705E+00   -0.21313E+01  2638   0.150E+00    0.804E-01
RMM:  16    -0.447595852496E+02    0.17788E+00   -0.11763E+01  2661   0.110E+00    0.101E+00
RMM:  17    -0.445369890566E+02    0.22260E+00   -0.27540E+01  2758   0.188E+00    0.873E-01
RMM:  18    -0.441641932071E+02    0.37280E+00   -0.26086E+01  2688   0.160E+00    0.142E+00
RMM:  19    -0.442082569103E+02   -0.44064E-01   -0.26018E+01  2726   0.176E+00    0.964E-01
RMM:  20    -0.442972727673E+02   -0.89016E-01   -0.27000E+01  2660   0.176E+00    0.788E-01
RMM:  21    -0.442666110998E+02    0.30662E-01   -0.26339E+01  2668   0.172E+00    0.980E-01
RMM:  22    -0.438182270431E+02    0.44838E+00   -0.37960E+01  2758   0.238E+00    0.939E-01
RMM:  23    -0.442655014919E+02   -0.44727E+00   -0.32363E+01  2715   0.207E+00    0.101E+00
RMM:  24    -0.457078042728E+02   -0.14423E+01   -0.33207E+01  2715   0.195E+00    0.106E+00
RMM:  25    -0.443125736218E+02    0.13952E+01   -0.37906E+01  2718   0.241E+00    0.998E-01
RMM:  26    -0.436948131009E+02    0.61776E+00   -0.45462E+01  2740   0.266E+00    0.932E-01
RMM:  27    -0.436784877326E+02    0.16325E-01   -0.37358E+01  2701   0.224E+00    0.105E+00
RMM:  28    -0.440270377665E+02   -0.34855E+00   -0.43063E+01  2653   0.241E+00    0.103E+00
RMM:  29    -0.434546997922E+02    0.57234E+00   -0.37657E+01  2631   0.223E+00    0.836E-01
RMM:  30    -0.437460017004E+02   -0.29130E+00   -0.29347E+01  2653   0.184E+00    0.105E+00
RMM:  31    -0.437703690346E+02   -0.24367E-01   -0.36091E+01  2645   0.233E+00    0.114E+00
RMM:  32    -0.437347167119E+02    0.35652E-01   -0.44023E+01  2731   0.253E+00    0.858E-01
RMM:  33    -0.439160476044E+02   -0.18133E+00   -0.31606E+01  2635   0.196E+00    0.946E-01
RMM:  34    -0.439159477672E+02    0.99837E-04   -0.38941E+01  2637   0.235E+00    0.743E-01
RMM:  35    -0.433153155775E+02    0.60063E+00   -0.32006E+01  2634   0.190E+00    0.826E-01
RMM:  36    -0.437265971437E+02   -0.41128E+00   -0.39433E+01  2692   0.228E+00    0.936E-01
RMM:  37    -0.435820427371E+02    0.14455E+00   -0.41218E+01  2683   0.255E+00    0.957E-01
RMM:  38    -0.439156531293E+02   -0.33361E+00   -0.25372E+01  2648   0.173E+00    0.928E-01
RMM:  39    -0.440048671227E+02   -0.89214E-01   -0.35805E+01  2667   0.233E+00    0.784E-01
RMM:  40    -0.442106543236E+02   -0.20579E+00   -0.31153E+01  2684   0.190E+00    0.109E+00
RMM:  41    -0.440604089122E+02    0.15025E+00   -0.43366E+01  2658   0.264E+00    0.121E+00
RMM:  42    -0.441991542970E+02   -0.13875E+00   -0.54074E+01  2748   0.309E+00    0.974E-01
RMM:  43    -0.438579981422E+02    0.34116E+00   -0.39931E+01  2722   0.249E+00    0.867E-01
RMM:  44    -0.432147432654E+02    0.64325E+00   -0.39751E+01  2714   0.231E+00    0.868E-01
RMM:  45    -0.439962691363E+02   -0.78153E+00   -0.37945E+01  2667   0.219E+00    0.114E+00
RMM:  46    -0.436526946658E+02    0.34357E+00   -0.39767E+01  2665   0.233E+00    0.102E+00
RMM:  47    -0.437005007729E+02   -0.47806E-01   -0.36626E+01  4203   0.242E+00    0.108E+00
RMM:  48    -0.440827055778E+02   -0.38220E+00   -0.40616E+01  3190   0.245E+00    0.974E-01
RMM:  49    -0.434939662737E+02    0.58874E+00   -0.39102E+01  2772   0.250E+00    0.912E-01
RMM:  50    -0.434034798747E+02    0.90486E-01   -0.39980E+01  2706   0.234E+00    0.995E-01
RMM:  51    -0.441458126617E+02   -0.74233E+00   -0.27643E+01  2948   0.175E+00    0.982E-01
RMM:  52    -0.443821470780E+02   -0.23633E+00   -0.35147E+01  4168   0.246E+00    0.102E+00
RMM:  53    -0.436139761517E+02    0.76817E+00   -0.42223E+01  4247   0.271E+00    0.119E+00
RMM:  54    -0.438631493237E+02   -0.24917E+00   -0.33305E+01  4176   0.210E+00    0.779E-01
RMM:  55    -0.440025910064E+02   -0.13944E+00   -0.29743E+01  4246   0.204E+00    0.114E+00
RMM:  56    -0.435295607855E+02    0.47303E+00   -0.40934E+01  4231   0.251E+00    0.834E-01
RMM:  57    -0.430681364918E+02    0.46142E+00   -0.40353E+01  4190   0.250E+00    0.921E-01
RMM:  58    -0.438502155555E+02   -0.78208E+00   -0.36327E+01  4270   0.230E+00    0.102E+00
RMM:  59    -0.436500771811E+02    0.20014E+00   -0.37250E+01  4196   0.236E+00    0.117E+00
RMM:  60    -0.436313737045E+02    0.18703E-01   -0.47764E+01  4241   0.272E+00
  11 F= -.43631374E+02 E0= -.43623890E+02  d E =0.624139E+00  mag=     0.0239
       N       E                     dE             d eps       ncg     rms          rms(c)
DAV:   1    -0.411665977290E+02    0.24835E+01   -0.62585E+02  4096   0.475E+01    0.557E+00
RMM:   2    -0.420394176459E+02   -0.87282E+00   -0.88927E+00  4268   0.798E+00    0.128E+00
RMM:   3    -0.421310197300E+02   -0.91602E-01   -0.14223E+00  4796   0.270E+00    0.226E+00
RMM:   4    -0.421338422761E+02   -0.28225E-02   -0.76870E-02  4404   0.846E-01    0.175E+00
RMM:   5    -0.421344855339E+02   -0.64326E-03   -0.83096E-03  4709   0.224E-01    0.143E+00
RMM:   6    -0.421333721882E+02    0.11133E-02   -0.16165E-03  4201   0.131E-01    0.795E-01
RMM:   7    -0.421337148087E+02   -0.34262E-03   -0.18674E-03  4176   0.215E-01    0.383E-01
RMM:   8    -0.421306069197E+02    0.31079E-02    0.17475E-02  4370   0.838E-02    0.484E-01
RMM:   9    -0.422797368030E+02   -0.14913E+00    0.13282E-01  4140   0.148E-02    0.456E-01
RMM:  10    -0.427456042471E+02   -0.46587E+00   -0.78187E+00  3348   0.690E-01    0.768E-01
RMM:  11    -0.437871480563E+02   -0.10415E+01   -0.11663E+01  2769   0.114E+00    0.104E+00
RMM:  12    -0.435107874243E+02    0.27636E+00   -0.29322E+01  2852   0.219E+00    0.841E-01
RMM:  13    -0.442151073392E+02   -0.70432E+00   -0.14910E+01  2831   0.117E+00    0.846E-01
RMM:  14    -0.436861890363E+02    0.52892E+00   -0.11813E+01  2687   0.106E+00    0.564E-01
RMM:  15    -0.433854537009E+02    0.30074E+00   -0.71270E+00  2738   0.639E-01    0.648E-01
RMM:  16    -0.446913112264E+02   -0.13059E+01   -0.18827E+01  2652   0.120E+00    0.100E+00
RMM:  17    -0.439721560354E+02    0.71916E+00   -0.30138E+01  2615   0.189E+00    0.844E-01
RMM:  18    -0.446213587244E+02   -0.64920E+00   -0.27977E+01  2759   0.177E+00    0.738E-01
RMM:  19    -0.437731723888E+02    0.84819E+00   -0.15136E+01  2701   0.138E+00    0.114E+00
RMM:  20    -0.443291171636E+02   -0.55594E+00   -0.34931E+01  2653   0.219E+00    0.805E-01
RMM:  21    -0.448675816954E+02   -0.53846E+00   -0.24082E+01  2643   0.177E+00    0.977E-01
RMM:  22    -0.445350911057E+02    0.33249E+00   -0.44835E+01  2694   0.265E+00    0.962E-01
RMM:  23    -0.441744776270E+02    0.36061E+00   -0.46307E+01  2701   0.272E+00    0.109E+00
RMM:  24    -0.440943524844E+02    0.80125E-01   -0.39246E+01  2706   0.240E+00    0.138E+00
RMM:  25    -0.435597884647E+02    0.53456E+00   -0.41706E+01  2711   0.246E+00    0.105E+00
RMM:  26    -0.432916772871E+02    0.26811E+00   -0.31096E+01  2643   0.192E+00    0.878E-01
RMM:  27    -0.433627111225E+02   -0.71034E-01   -0.24380E+01  2728   0.164E+00    0.864E-01
RMM:  28    -0.436784431549E+02   -0.31573E+00   -0.35139E+01  2621   0.210E+00    0.106E+00
RMM:  29    -0.433824680277E+02    0.29598E+00   -0.35429E+01  2670   0.223E+00    0.852E-01
RMM:  30    -0.443352382560E+02   -0.95277E+00   -0.28377E+01  2645   0.178E+00    0.154E+00
RMM:  31    -0.448197909313E+02   -0.48455E+00   -0.41340E+01  2718   0.257E+00    0.142E+00
RMM:  32    -0.437123013473E+02    0.11075E+01   -0.47098E+01  2737   0.293E+00    0.144E+00
RMM:  33    -0.438669171945E+02   -0.15462E+00   -0.51515E+01  2786   0.290E+00    0.131E+00
RMM:  34    -0.442767956157E+02   -0.40988E+00   -0.40579E+01  2756   0.246E+00    0.965E-01
RMM:  35    -0.434858295416E+02    0.79097E+00   -0.43714E+01  2729   0.256E+00    0.803E-01
RMM:  36    -0.434613162907E+02    0.24513E-01   -0.30744E+01  2655   0.186E+00    0.847E-01
RMM:  37    -0.438486286748E+02   -0.38731E+00   -0.31595E+01  2598   0.195E+00    0.821E-01
RMM:  38    -0.434349220600E+02    0.41371E+00   -0.28130E+01  2629   0.176E+00    0.888E-01
RMM:  39    -0.430307083910E+02    0.40421E+00   -0.48408E+01  2640   0.272E+00    0.737E-01
RMM:  40    -0.434769850713E+02   -0.44628E+00   -0.42370E+01  2651   0.231E+00    0.111E+00
RMM:  41    -0.433925119378E+02    0.84473E-01   -0.55622E+01  2717   0.295E+00    0.774E-01
RMM:  42    -0.436414970344E+02   -0.24899E+00   -0.35746E+01  2802   0.219E+00    0.782E-01
RMM:  43    -0.432954764175E+02    0.34602E+00   -0.45583E+01  2683   0.250E+00    0.113E+00
RMM:  44    -0.437325408431E+02   -0.43706E+00   -0.34999E+01  2707   0.205E+00    0.104E+00
RMM:  45    -0.431949135521E+02    0.53763E+00   -0.48341E+01  2715   0.284E+00    0.994E-01
RMM:  46    -0.432839022735E+02   -0.88989E-01   -0.45818E+01  2857   0.247E+00    0.112E+00
RMM:  47    -0.431046877791E+02    0.17921E+00   -0.46638E+01  4196   0.265E+00    0.649E-01
RMM:  48    -0.439132080069E+02   -0.80852E+00   -0.25234E+01  2984   0.163E+00    0.890E-01
RMM:  49    -0.434080201386E+02    0.50519E+00   -0.36423E+01  2806   0.226E+00    0.723E-01
RMM:  50    -0.434315719401E+02   -0.23552E-01   -0.30476E+01  2633   0.193E+00    0.780E-01
RMM:  51    -0.440591469499E+02   -0.62758E+00   -0.31050E+01  2763   0.202E+00    0.114E+00
RMM:  52    -0.433150668443E+02    0.74408E+00   -0.40710E+01  4166   0.257E+00    0.122E+00
RMM:  53    -0.433410213406E+02   -0.25954E-01   -0.43938E+01  4243   0.246E+00    0.837E-01
RMM:  54    -0.432921584801E+02    0.48863E-01   -0.19106E+01  4242   0.142E+00    0.851E-01
RMM:  55    -0.439626858866E+02   -0.67053E+00   -0.32992E+01  4201   0.215E+00    0.944E-01
RMM:  56    -0.435733818644E+02    0.38930E+00   -0.39195E+01  4156   0.254E+00    0.901E-01
RMM:  57    -0.431974080600E+02    0.37597E+00   -0.36669E+01  4163   0.243E+00    0.774E-01
RMM:  58    -0.440430430960E+02   -0.84564E+00   -0.33092E+01  4267   0.212E+00    0.111E+00
RMM:  59    -0.440294342365E+02    0.13609E-01   -0.34315E+01  4194   0.216E+00    0.908E-01
RMM:  60    -0.431582105497E+02    0.87122E+00   -0.41102E+01  4146   0.236E+00
  12 F= -.43158211E+02 E0= -.43150199E+02  d E =0.109730E+01  mag=    -0.0121
       N       E                     dE             d eps       ncg     rms          rms(c)
DAV:   1    -0.420123976513E+02    0.20170E+01   -0.14288E+02  4096   0.209E+01    0.203E+00
RMM:   2    -0.421469175287E+02   -0.13452E+00   -0.13041E+00  4223   0.339E+00    0.604E-01
RMM:   3    -0.421657725582E+02   -0.18855E-01   -0.26979E-01  4894   0.116E+00    0.852E-01
RMM:   4    -0.421658448425E+02   -0.72284E-04   -0.40023E-03  4464   0.175E-01    0.676E-01
RMM:   5    -0.421661360093E+02   -0.29117E-03   -0.68116E-04  4536   0.660E-02    0.510E-01
RMM:   6    -0.421669289481E+02   -0.79294E-03   -0.55807E-04  4185   0.861E-02    0.105E-01
RMM:   7    -0.421676504504E+02   -0.72150E-03   -0.63480E-04  4174   0.103E-01    0.358E-01
RMM:   8    -0.421888277977E+02   -0.21177E-01    0.32006E-03  3732   0.219E-02    0.256E-01
RMM:   9    -0.424734412509E+02   -0.28461E+00   -0.50572E-01  2600   0.935E-02    0.429E-01
RMM:  10    -0.425855428083E+02   -0.11210E+00   -0.35320E+00  2513   0.471E-01    0.481E-01
RMM:  11    -0.431369123740E+02   -0.55137E+00   -0.43864E+00  2574   0.471E-01    0.567E-01
RMM:  12    -0.433029268579E+02   -0.16601E+00   -0.13494E+01  2698   0.107E+00    0.821E-01
RMM:  13    -0.433583019348E+02   -0.55375E-01   -0.18728E+01  2658   0.139E+00    0.869E-01
RMM:  14    -0.447765075659E+02   -0.14182E+01   -0.17366E+01  2656   0.147E+00    0.118E+00
RMM:  15    -0.453810578202E+02   -0.60455E+00   -0.89085E+00  2660   0.102E+00    0.111E+00
RMM:  16    -0.458064834572E+02   -0.42543E+00   -0.25413E+01  2728   0.195E+00    0.109E+00
RMM:  17    -0.460492341121E+02   -0.24275E+00   -0.33633E+01  2714   0.229E+00    0.110E+00
RMM:  18    -0.450764974872E+02    0.97274E+00   -0.35499E+01  2750   0.237E+00    0.109E+00
RMM:  19    -0.453859582501E+02   -0.30946E+00   -0.39311E+01  2788   0.239E+00    0.780E-01
RMM:  20    -0.438677151593E+02    0.15182E+01   -0.29783E+01  2698   0.200E+00    0.905E-01
RMM:  21    -0.446766983601E+02   -0.80898E+00   -0.21959E+01  2661   0.143E+00    0.123E+00
RMM:  22    -0.448611961072E+02   -0.18450E+00   -0.29808E+01  2641   0.200E+00    0.996E-01
RMM:  23    -0.448750339272E+02   -0.13838E-01   -0.27382E+01  2696   0.201E+00    0.845E-01
RMM:  24    -0.445892658944E+02    0.28577E+00   -0.34013E+01  2665   0.214E+00    0.109E+00
RMM:  25    -0.442935062816E+02    0.29576E+00   -0.37491E+01  2700   0.239E+00    0.177E+00
RMM:  26    -0.438591475432E+02    0.43436E+00   -0.39529E+01  2702   0.247E+00    0.110E+00
RMM:  27    -0.439628135034E+02   -0.10367E+00   -0.43083E+01  2683   0.254E+00    0.920E-01
RMM:  28    -0.438896372129E+02    0.73176E-01   -0.40215E+01  2668   0.247E+00    0.123E+00
RMM:  29    -0.437771461151E+02    0.11249E+00   -0.46505E+01  2702   0.271E+00    0.811E-01
RMM:  30    -0.436253753233E+02    0.15177E+00   -0.43063E+01  2715   0.238E+00    0.750E-01
RMM:  31    -0.436056970892E+02    0.19678E-01   -0.31491E+01  2667   0.194E+00    0.121E+00
RMM:  32    -0.436026809658E+02    0.30161E-02   -0.50227E+01  2622   0.281E+00    0.120E+00
RMM:  33    -0.439423768569E+02   -0.33970E+00   -0.54532E+01  2764   0.310E+00    0.102E+00
RMM:  34    -0.437674577587E+02    0.17492E+00   -0.51319E+01  2793   0.296E+00    0.122E+00
RMM:  35    -0.441307623808E+02   -0.36330E+00   -0.23735E+01  2659   0.179E+00    0.825E-01
RMM:  36    -0.438833880724E+02    0.24737E+00   -0.41485E+01  2626   0.225E+00    0.831E-01
RMM:  37    -0.446102430168E+02   -0.72685E+00   -0.38472E+01  2685   0.227E+00    0.954E-01
RMM:  38    -0.435608735852E+02    0.10494E+01   -0.54903E+01  2752   0.309E+00    0.108E+00
RMM:  39    -0.431618198595E+02    0.39905E+00   -0.47321E+01  2735   0.274E+00    0.827E-01
RMM:  40    -0.436901462121E+02   -0.52833E+00   -0.31784E+01  2678   0.188E+00    0.103E+00
RMM:  41    -0.438388099526E+02   -0.14866E+00   -0.45914E+01  2717   0.268E+00    0.939E-01
RMM:  42    -0.439959145524E+02   -0.15710E+00   -0.37810E+01  2723   0.230E+00    0.126E+00
RMM:  43    -0.432897735185E+02    0.70614E+00   -0.48438E+01  2761   0.281E+00    0.997E-01
RMM:  44    -0.436463734191E+02   -0.35660E+00   -0.44614E+01  2697   0.260E+00    0.930E-01
RMM:  45    -0.434784392270E+02    0.16793E+00   -0.47701E+01  2681   0.285E+00    0.134E+00
RMM:  46    -0.435919637104E+02   -0.11352E+00   -0.40123E+01  2690   0.245E+00    0.887E-01
RMM:  47    -0.436221783470E+02   -0.30215E-01   -0.42683E+01  4178   0.240E+00    0.102E+00
RMM:  48    -0.441517046404E+02   -0.52953E+00   -0.44022E+01  3044   0.257E+00    0.101E+00
RMM:  49    -0.435106436393E+02    0.64106E+00   -0.44707E+01  2843   0.265E+00    0.922E-01
RMM:  50    -0.436703365982E+02   -0.15969E+00   -0.36474E+01  2866   0.220E+00    0.720E-01
RMM:  51    -0.437794508073E+02   -0.10911E+00   -0.28915E+01  2846   0.189E+00    0.964E-01
RMM:  52    -0.432089932894E+02    0.57046E+00   -0.46303E+01  4196   0.290E+00    0.861E-01
RMM:  53    -0.431972999573E+02    0.11693E-01   -0.28042E+01  4266   0.191E+00    0.746E-01
RMM:  54    -0.430988786619E+02    0.98421E-01   -0.34111E+01  4186   0.205E+00    0.842E-01
RMM:  55    -0.434263658176E+02   -0.32749E+00   -0.32317E+01  4218   0.208E+00    0.666E-01
RMM:  56    -0.442504171449E+02   -0.82405E+00   -0.23328E+01  4196   0.166E+00    0.829E-01
RMM:  57    -0.438069638487E+02    0.44345E+00   -0.31909E+01  4187   0.223E+00    0.848E-01
RMM:  58    -0.436873876515E+02    0.11958E+00   -0.43070E+01  4255   0.254E+00    0.112E+00
RMM:  59    -0.443639058311E+02   -0.67652E+00   -0.27985E+01  4186   0.191E+00    0.108E+00
RMM:  60    -0.438583724891E+02    0.50553E+00   -0.36844E+01  4221   0.238E+00
  13 F= -.43858372E+02 E0= -.43871976E+02  d E =0.397140E+00  mag=    -0.0199
       N       E                     dE             d eps       ncg     rms          rms(c)
DAV:   1    -0.420600606240E+02    0.23038E+01   -0.13965E+02  4096   0.206E+01    0.179E+00
RMM:   2    -0.421690161398E+02   -0.10896E+00   -0.11055E+00  4237   0.320E+00    0.581E-01
RMM:   3    -0.421832417839E+02   -0.14226E-01   -0.22452E-01  4926   0.109E+00    0.751E-01
RMM:   4    -0.421832819397E+02   -0.40156E-04   -0.36160E-03  4424   0.171E-01    0.593E-01
RMM:   5    -0.421833741023E+02   -0.92163E-04   -0.61920E-04  4815   0.670E-02    0.496E-01
RMM:   6    -0.421836853737E+02   -0.31127E-03   -0.29285E-04  4180   0.776E-02    0.114E-01
RMM:   7    -0.421839788968E+02   -0.29352E-03   -0.24637E-04  4146   0.103E-01    0.359E-01
RMM:   8    -0.421831510776E+02    0.82782E-03    0.57158E-03  3688   0.204E-02    0.226E-01
RMM:   9    -0.422119361497E+02   -0.28785E-01   -0.28254E-02  2568   0.124E-02    0.359E-01
RMM:  10    -0.426814218770E+02   -0.46949E+00   -0.15735E+00  2480   0.197E-01    0.321E-01
RMM:  11    -0.431639983993E+02   -0.48258E+00   -0.35507E+00  2506   0.376E-01    0.649E-01
RMM:  12    -0.433556130116E+02   -0.19161E+00   -0.15955E+01  2696   0.116E+00    0.796E-01
RMM:  13    -0.440002092342E+02   -0.64460E+00   -0.22477E+01  2619   0.157E+00    0.859E-01
RMM:  14    -0.438822286661E+02    0.11798E+00   -0.14901E+01  2673   0.129E+00    0.813E-01
RMM:  15    -0.433166588853E+02    0.56557E+00   -0.19776E+01  2696   0.155E+00    0.656E-01
RMM:  16    -0.435592132296E+02   -0.24255E+00   -0.13668E+01  2661   0.110E+00    0.616E-01
RMM:  17    -0.437460822961E+02   -0.18687E+00   -0.17460E+01  2653   0.127E+00    0.647E-01
RMM:  18    -0.431363336981E+02    0.60975E+00   -0.19162E+01  2612   0.130E+00    0.719E-01
RMM:  19    -0.436118085152E+02   -0.47547E+00   -0.21664E+01  2618   0.136E+00    0.745E-01
RMM:  20    -0.440306685681E+02   -0.41886E+00   -0.10763E+01  2664   0.108E+00    0.773E-01
RMM:  21    -0.441364945456E+02   -0.10583E+00   -0.22088E+01  2708   0.164E+00    0.596E-01
RMM:  22    -0.439238022696E+02    0.21269E+00   -0.17947E+01  2639   0.129E+00    0.809E-01
RMM:  23    -0.434559106678E+02    0.46789E+00   -0.23287E+01  2632   0.163E+00    0.640E-01
RMM:  24    -0.435862039158E+02   -0.13029E+00   -0.27732E+01  2670   0.169E+00    0.772E-01
RMM:  25    -0.430665204021E+02    0.51968E+00   -0.35281E+01  2670   0.207E+00    0.595E-01
RMM:  26    -0.431596026288E+02   -0.93082E-01   -0.20590E+01  2619   0.134E+00    0.577E-01
RMM:  27    -0.426604160195E+02    0.49919E+00   -0.17661E+01  2579   0.126E+00    0.645E-01
RMM:  28    -0.425757445642E+02    0.84671E-01   -0.27681E+01  2583   0.158E+00    0.513E-01
RMM:  29    -0.437960619333E+02   -0.12203E+01   -0.27410E+01  2622   0.151E+00    0.789E-01
RMM:  30    -0.435721138484E+02    0.22395E+00   -0.45491E+01  2648   0.240E+00    0.955E-01
RMM:  31    -0.431194159659E+02    0.45270E+00   -0.43462E+01  2693   0.247E+00    0.981E-01
RMM:  32    -0.436491570871E+02   -0.52974E+00   -0.34570E+01  2627   0.200E+00    0.984E-01
RMM:  33    -0.433149134041E+02    0.33424E+00   -0.39486E+01  2622   0.245E+00    0.105E+00
RMM:  34    -0.440523547512E+02   -0.73744E+00   -0.37848E+01  2633   0.219E+00    0.139E+00
RMM:  35    -0.437134768717E+02    0.33888E+00   -0.38365E+01  2700   0.238E+00    0.900E-01
RMM:  36    -0.437429848066E+02   -0.29508E-01   -0.29493E+01  2717   0.202E+00    0.897E-01
RMM:  37    -0.440064399089E+02   -0.26346E+00   -0.31941E+01  2641   0.213E+00    0.102E+00
RMM:  38    -0.432452362591E+02    0.76120E+00   -0.48817E+01  2730   0.266E+00    0.807E-01
RMM:  39    -0.439910804741E+02   -0.74584E+00   -0.26606E+01  2664   0.181E+00    0.879E-01
RMM:  40    -0.440750069669E+02   -0.83926E-01   -0.35815E+01  2656   0.218E+00    0.845E-01
RMM:  41    -0.438984922379E+02    0.17651E+00   -0.36035E+01  2699   0.217E+00    0.792E-01
RMM:  42    -0.439041647545E+02   -0.56725E-02   -0.24261E+01  2632   0.168E+00    0.969E-01
RMM:  43    -0.438509046163E+02    0.53260E-01   -0.47659E+01  2653   0.274E+00    0.117E+00
RMM:  44    -0.439507059123E+02   -0.99801E-01   -0.42638E+01  2740   0.259E+00    0.102E+00
RMM:  45    -0.441901332512E+02   -0.23943E+00   -0.48914E+01  2705   0.289E+00    0.973E-01
RMM:  46    -0.442014701824E+02   -0.11337E-01   -0.42917E+01  2629   0.258E+00    0.997E-01
RMM:  47    -0.440517287548E+02    0.14974E+00   -0.42248E+01  3651   0.256E+00    0.911E-01
RMM:  48    -0.439951004155E+02    0.56628E-01   -0.37009E+01  2848   0.234E+00    0.101E+00
RMM:  49    -0.437223710106E+02    0.27273E+00   -0.55793E+01  2671   0.297E+00    0.125E+00
RMM:  50    -0.438240524335E+02   -0.10168E+00   -0.45806E+01  2737   0.275E+00    0.673E-01
RMM:  51    -0.437837501461E+02    0.40302E-01   -0.24628E+01  2721   0.163E+00    0.129E+00
RMM:  52    -0.431732224855E+02    0.61053E+00   -0.24200E+01  4183   0.190E+00    0.925E-01
RMM:  53    -0.439220810997E+02   -0.74886E+00   -0.32385E+01  4266   0.207E+00    0.119E+00
RMM:  54    -0.432071538236E+02    0.71493E+00   -0.59773E+01  4212   0.334E+00    0.832E-01
RMM:  55    -0.432365009572E+02   -0.29347E-01   -0.42082E+01  4191   0.248E+00    0.740E-01
RMM:  56    -0.432267664735E+02    0.97345E-02   -0.37408E+01  4193   0.212E+00    0.812E-01
RMM:  57    -0.433886923859E+02   -0.16193E+00   -0.39998E+01  4236   0.239E+00    0.847E-01
[...]
RMM:  32    -0.431587043046E+02    0.46055E+00   -0.39072E+01  2692   0.236E+00    0.983E-01
RMM:  33    -0.435434906229E+02   -0.38479E+00   -0.38775E+01  2679   0.211E+00    0.904E-01
RMM:  34    -0.440857653463E+02   -0.54227E+00   -0.28330E+01  2623   0.183E+00    0.112E+00
RMM:  35    -0.436447721326E+02    0.44099E+00   -0.57607E+01  2700   0.325E+00    0.971E-01
RMM:  36    -0.435865986459E+02    0.58173E-01   -0.53842E+01  2690   0.295E+00    0.108E+00
RMM:  37    -0.430912605648E+02    0.49534E+00   -0.48195E+01  2682   0.277E+00    0.764E-01
RMM:  38    -0.437386195926E+02   -0.64736E+00   -0.43497E+01  2631   0.238E+00    0.911E-01
RMM:  39    -0.434552178751E+02    0.28340E+00   -0.39315E+01  2642   0.250E+00    0.692E-01
RMM:  40    -0.431422023759E+02    0.31302E+00   -0.34204E+01  2634   0.197E+00    0.694E-01
RMM:  41    -0.435786196871E+02   -0.43642E+00   -0.30916E+01  2607   0.192E+00    0.943E-01
RMM:  42    -0.430993966492E+02    0.47922E+00   -0.44782E+01  2651   0.251E+00    0.103E+00
RMM:  43    -0.427980321173E+02    0.30136E+00   -0.38782E+01  2731   0.221E+00    0.721E-01
RMM:  44    -0.432477934105E+02   -0.44976E+00   -0.33183E+01  2619   0.174E+00    0.850E-01
RMM:  45    -0.435532604673E+02   -0.30547E+00   -0.41317E+01  2607   0.240E+00    0.102E+00
RMM:  46    -0.440858627950E+02   -0.53260E+00   -0.43550E+01  2617   0.247E+00    0.123E+00
RMM:  47    -0.433775916095E+02    0.70827E+00   -0.59018E+01  2697   0.309E+00    0.900E-01
RMM:  48    -0.436914167242E+02   -0.31383E+00   -0.33470E+01  2664   0.212E+00    0.100E+00
RMM:  49    -0.436679092214E+02    0.23508E-01   -0.51403E+01  2755   0.277E+00    0.100E+00
RMM:  50    -0.438187742205E+02   -0.15086E+00   -0.54506E+01  2703   0.296E+00    0.997E-01
RMM:  51    -0.433185549114E+02    0.50022E+00   -0.50291E+01  2673   0.277E+00    0.982E-01
RMM:  52    -0.432106160343E+02    0.10794E+00   -0.38780E+01  4167   0.241E+00    0.792E-01
RMM:  53    -0.437229141459E+02   -0.51230E+00   -0.34384E+01  4282   0.198E+00    0.966E-01
RMM:  54    -0.440311828861E+02   -0.30827E+00   -0.34084E+01  4145   0.224E+00    0.986E-01
RMM:  55    -0.433491777584E+02    0.68201E+00   -0.50404E+01  3234   0.272E+00    0.911E-01
RMM:  56    -0.437651773477E+02   -0.41600E+00   -0.40187E+01  4108   0.232E+00    0.773E-01
RMM:  57    -0.443997098856E+02   -0.63453E+00   -0.23942E+01  4166   0.172E+00    0.113E+00
RMM:  58    -0.444569502150E+02   -0.57240E-01   -0.36891E+01  4254   0.243E+00    0.140E+00
RMM:  59    -0.441722149570E+02    0.28474E+00   -0.47506E+01  4202   0.279E+00    0.962E-01
RMM:  60    -0.437893154471E+02    0.38290E+00   -0.44367E+01  4177   0.256E+00
 156 F= -.43789315E+02 E0= -.43787902E+02  d E =-.124980E+00  mag=    -0.0186
       N       E                     dE             d eps       ncg     rms          rms(c)
DAV:   1    -0.421860357810E+02    0.19862E+01   -0.44409E+01  4744   0.309E+00    0.333E-01
RMM:   2    -0.421988035053E+02   -0.12768E-01   -0.11964E-02  4106   0.172E-01    0.180E-01
RMM:   3    -0.422014703919E+02   -0.26669E-02   -0.84463E-04  4305   0.575E-02    0.813E-02
RMM:   4    -0.422039771982E+02   -0.25068E-02   -0.47321E-04  4202   0.341E-02    0.565E-02
RMM:   5    -0.422049287900E+02   -0.95159E-03   -0.11549E-04  3685   0.206E-02    0.311E-02
RMM:   6    -0.422058640431E+02   -0.93525E-03    0.89080E-05  2820   0.146E-02    0.158E-02
RMM:   7    -0.422061164855E+02   -0.25244E-03    0.11565E-03  2713   0.101E-02    0.885E-03
RMM:   8    -0.422031664004E+02    0.29501E-02    0.78906E-03  2630   0.647E-03    0.900E-03
RMM:   9    -0.422102176726E+02   -0.70513E-02    0.29425E-02  2553   0.453E-04    0.705E-02
RMM:  10    -0.423844016597E+02   -0.17418E+00   -0.11042E-01  2482   0.265E-02    0.425E-01
RMM:  11    -0.428317716148E+02   -0.44737E+00   -0.36584E+00  2503   0.340E-01    0.545E-01
RMM:  12    -0.438970659224E+02   -0.10653E+01   -0.81442E+00  2552   0.889E-01    0.113E+00
RMM:  13    -0.434086564392E+02    0.48841E+00   -0.36050E+01  2609   0.237E+00    0.798E-01
RMM:  14    -0.439404928013E+02   -0.53184E+00   -0.20353E+01  2665   0.156E+00    0.850E-01
RMM:  15    -0.434680408848E+02    0.47245E+00   -0.29024E+01  2646   0.205E+00    0.858E-01
RMM:  16    -0.439142402454E+02   -0.44620E+00   -0.22871E+01  2669   0.165E+00    0.912E-01
RMM:  17    -0.445561595698E+02   -0.64192E+00   -0.30274E+01  2672   0.209E+00    0.931E-01
RMM:  18    -0.450982364318E+02   -0.54208E+00   -0.36451E+01  2653   0.227E+00    0.103E+00
RMM:  19    -0.439198800589E+02    0.11784E+01   -0.31803E+01  2676   0.215E+00    0.744E-01
RMM:  20    -0.442010566235E+02   -0.28118E+00   -0.33982E+01  2629   0.198E+00    0.965E-01
RMM:  21    -0.440068817663E+02    0.19417E+00   -0.37372E+01  2615   0.225E+00    0.122E+00
RMM:  22    -0.440164712528E+02   -0.95895E-02   -0.35001E+01  2668   0.222E+00    0.892E-01
RMM:  23    -0.446607410967E+02   -0.64427E+00   -0.29358E+01  2635   0.206E+00    0.879E-01
RMM:  24    -0.453226717346E+02   -0.66193E+00   -0.37658E+01  2720   0.227E+00    0.130E+00
RMM:  25    -0.444751684387E+02    0.84750E+00   -0.47644E+01  2686   0.290E+00    0.110E+00
RMM:  26    -0.443408873159E+02    0.13428E+00   -0.41115E+01  2750   0.248E+00    0.109E+00
RMM:  27    -0.452490393493E+02   -0.90815E+00   -0.36668E+01  2641   0.249E+00    0.113E+00
RMM:  28    -0.440588898711E+02    0.11901E+01   -0.45194E+01  2705   0.279E+00    0.107E+00
RMM:  29    -0.433292287171E+02    0.72966E+00   -0.40325E+01  2704   0.245E+00    0.729E-01
RMM:  30    -0.431947397595E+02    0.13449E+00   -0.43466E+01  2665   0.234E+00    0.825E-01
RMM:  31    -0.437021355305E+02   -0.50740E+00   -0.35366E+01  2638   0.218E+00    0.104E+00
RMM:  32    -0.436514212426E+02    0.50714E-01   -0.37070E+01  2606   0.228E+00    0.703E-01
RMM:  33    -0.435699597796E+02    0.81461E-01   -0.23055E+01  2629   0.147E+00    0.977E-01
RMM:  34    -0.435341157414E+02    0.35844E-01   -0.50965E+01  2623   0.276E+00    0.116E+00
RMM:  35    -0.435750438687E+02   -0.40928E-01   -0.52652E+01  2668   0.284E+00    0.106E+00
RMM:  36    -0.434224810930E+02    0.15256E+00   -0.56823E+01  2642   0.295E+00    0.101E+00
RMM:  37    -0.436149120681E+02   -0.19243E+00   -0.43320E+01  2667   0.261E+00    0.858E-01
RMM:  38    -0.441616568416E+02   -0.54674E+00   -0.44646E+01  2688   0.255E+00    0.101E+00
RMM:  39    -0.434102384475E+02    0.75142E+00   -0.48580E+01  2687   0.290E+00    0.909E-01
RMM:  40    -0.435931151264E+02   -0.18288E+00   -0.45443E+01  2708   0.261E+00    0.107E+00
RMM:  41    -0.428073293785E+02    0.78579E+00   -0.50847E+01  2644   0.277E+00    0.107E+00
RMM:  42    -0.432984373013E+02   -0.49111E+00   -0.29936E+01  2689   0.178E+00    0.728E-01
RMM:  43    -0.440856844796E+02   -0.78725E+00   -0.32340E+01  2659   0.203E+00    0.881E-01
RMM:  44    -0.447517845841E+02   -0.66610E+00   -0.30414E+01  2628   0.192E+00    0.109E+00
RMM:  45    -0.436793378268E+02    0.10724E+01   -0.43448E+01  2692   0.255E+00    0.995E-01
RMM:  46    -0.435273221680E+02    0.15202E+00   -0.39099E+01  2751   0.227E+00    0.862E-01
RMM:  47    -0.433784038500E+02    0.14892E+00   -0.44900E+01  2648   0.257E+00    0.706E-01
RMM:  48    -0.436852245595E+02   -0.30682E+00   -0.42685E+01  2683   0.235E+00    0.846E-01
RMM:  49    -0.442536158510E+02   -0.56839E+00   -0.40819E+01  2628   0.236E+00    0.745E-01
RMM:  50    -0.437687355873E+02    0.48488E+00   -0.31316E+01  2680   0.201E+00    0.865E-01
RMM:  51    -0.435728077606E+02    0.19593E+00   -0.46835E+01  2632   0.276E+00    0.757E-01
RMM:  52    -0.439335449575E+02   -0.36074E+00   -0.34059E+01  4173   0.230E+00    0.866E-01
RMM:  53    -0.438605247260E+02    0.73020E-01   -0.37020E+01  4258   0.241E+00    0.903E-01
RMM:  54    -0.437808079866E+02    0.79717E-01   -0.40667E+01  4234   0.249E+00    0.942E-01
RMM:  55    -0.435887203731E+02    0.19209E+00   -0.55347E+01  4115   0.297E+00    0.852E-01
RMM:  56    -0.437021083692E+02   -0.11339E+00   -0.38881E+01  4173   0.236E+00    0.103E+00
RMM:  57    -0.433134889335E+02    0.38862E+00   -0.55661E+01  4184   0.314E+00    0.598E-01
RMM:  58    -0.430279494848E+02    0.28554E+00   -0.20717E+01  4235   0.157E+00    0.617E-01
RMM:  59    -0.431431221525E+02   -0.11517E+00   -0.28183E+01  4223   0.177E+00    0.758E-01
RMM:  60    -0.433718714654E+02   -0.22875E+00   -0.40124E+01  4227   0.220E+00
 157 F= -.43371871E+02 E0= -.43375942E+02  d E =0.292464E+00  mag=    -0.0048
       N       E                     dE             d eps       ncg     rms          rms(c)
DAV:   1    -0.421847317891E+02    0.95839E+00   -0.38295E+01  4616   0.284E+00    0.347E-01
RMM:   2    -0.421983091273E+02   -0.13577E-01   -0.11505E-02  4108   0.184E-01    0.194E-01
RMM:   3    -0.422014637669E+02   -0.31546E-02   -0.11616E-03  4277   0.630E-02    0.116E-01
RMM:   4    -0.422031844783E+02   -0.17207E-02   -0.54763E-04  4198   0.428E-02    0.845E-02
RMM:   5    -0.422047092515E+02   -0.15248E-02   -0.17608E-04  4168   0.279E-02    0.380E-02
RMM:   6    -0.422057775242E+02   -0.10683E-02    0.76702E-05  2880   0.143E-02    0.173E-02
RMM:   7    -0.422064803656E+02   -0.70284E-03    0.95091E-05  2670   0.968E-03    0.722E-03
RMM:   8    -0.422068316153E+02   -0.35125E-03    0.22027E-04  2533   0.676E-03    0.484E-03
RMM:   9    -0.422067879778E+02    0.43638E-04    0.95973E-04  2522   0.578E-03    0.418E-03
RMM:  10    -0.422125432389E+02   -0.57553E-02    0.24358E-02  2503   0.233E-03    0.889E-02
RMM:  11    -0.426115438699E+02   -0.39900E+00   -0.29314E-01  2451   0.410E-02    0.715E-01
RMM:  12    -0.430348399753E+02   -0.42330E+00   -0.11020E+01  2522   0.738E-01    0.803E-01
RMM:  13    -0.430095173667E+02    0.25323E-01   -0.21747E+01  2558   0.158E+00    0.740E-01
RMM:  14    -0.435839658830E+02   -0.57445E+00   -0.22579E+01  2626   0.159E+00    0.876E-01
RMM:  15    -0.439749087531E+02   -0.39094E+00   -0.30936E+01  2618   0.204E+00    0.650E-01
RMM:  16    -0.437343284343E+02    0.24058E+00   -0.19807E+01  2642   0.148E+00    0.831E-01
RMM:  17    -0.445636932853E+02   -0.82936E+00   -0.29608E+01  2649   0.195E+00    0.998E-01
RMM:  18    -0.447567751467E+02   -0.19308E+00   -0.21363E+01  2685   0.164E+00    0.941E-01
RMM:  19    -0.439532905735E+02    0.80348E+00   -0.29138E+01  2665   0.209E+00    0.714E-01
RMM:  20    -0.443724842986E+02   -0.41919E+00   -0.20567E+01  2669   0.139E+00    0.786E-01
RMM:  21    -0.448222334365E+02   -0.44975E+00   -0.14432E+01  2607   0.123E+00    0.120E+00
RMM:  22    -0.446678433324E+02    0.15439E+00   -0.39288E+01  2682   0.243E+00    0.121E+00
RMM:  23    -0.445781237349E+02    0.89720E-01   -0.38082E+01  2675   0.235E+00    0.981E-01
RMM:  24    -0.445298452478E+02    0.48278E-01   -0.52258E+01  2691   0.288E+00    0.973E-01
RMM:  25    -0.444379526576E+02    0.91893E-01   -0.42420E+01  2717   0.265E+00    0.863E-01
RMM:  26    -0.440732202221E+02    0.36473E+00   -0.41184E+01  2635   0.237E+00    0.103E+00
RMM:  27    -0.444136709309E+02   -0.34045E+00   -0.31183E+01  2694   0.211E+00    0.925E-01
RMM:  28    -0.446315935902E+02   -0.21792E+00   -0.41921E+01  2703   0.249E+00    0.944E-01
RMM:  29    -0.439605557079E+02    0.67104E+00   -0.32171E+01  2729   0.221E+00    0.848E-01
RMM:  30    -0.435815049290E+02    0.37905E+00   -0.39825E+01  2697   0.230E+00    0.778E-01
RMM:  31    -0.437522168676E+02   -0.17071E+00   -0.23518E+01  2660   0.165E+00    0.101E+00
RMM:  32    -0.439160345710E+02   -0.16382E+00   -0.44122E+01  2664   0.251E+00    0.994E-01
RMM:  33    -0.435633538988E+02    0.35268E+00   -0.45406E+01  2693   0.262E+00    0.116E+00
RMM:  34    -0.429865704804E+02    0.57678E+00   -0.49990E+01  2691   0.273E+00    0.651E-01
RMM:  35    -0.436516187296E+02   -0.66505E+00   -0.28068E+01  2687   0.183E+00    0.853E-01
RMM:  36    -0.437969193400E+02   -0.14530E+00   -0.35552E+01  2665   0.210E+00    0.100E+00
RMM:  37    -0.434706203386E+02    0.32630E+00   -0.51379E+01  2726   0.288E+00    0.729E-01
RMM:  38    -0.437948815393E+02   -0.32426E+00   -0.36302E+01  2714   0.204E+00    0.108E+00
RMM:  39    -0.442531935809E+02   -0.45831E+00   -0.32122E+01  2642   0.224E+00    0.105E+00
RMM:  40    -0.439502600712E+02    0.30293E+00   -0.47621E+01  2708   0.272E+00    0.104E+00
RMM:  41    -0.445358784152E+02   -0.58562E+00   -0.46813E+01  2754   0.276E+00    0.120E+00
RMM:  42    -0.444944530303E+02    0.41425E-01   -0.55769E+01  2742   0.329E+00    0.960E-01
RMM:  43    -0.438683610269E+02    0.62609E+00   -0.47906E+01  2716   0.266E+00    0.982E-01
RMM:  44    -0.434284827918E+02    0.43988E+00   -0.36471E+01  2706   0.231E+00    0.835E-01
RMM:  45    -0.437187026009E+02   -0.29022E+00   -0.43709E+01  2714   0.250E+00    0.874E-01
RMM:  46    -0.430352415462E+02    0.68346E+00   -0.41784E+01  2629   0.236E+00    0.646E-01
RMM:  47    -0.437561494470E+02   -0.72091E+00   -0.25303E+01  2661   0.164E+00    0.765E-01
RMM:  48    -0.427589954846E+02    0.99715E+00   -0.32816E+01  2578   0.191E+00    0.486E-01
RMM:  49    -0.428927299924E+02   -0.13373E+00   -0.28710E+01  2684   0.165E+00    0.741E-01
RMM:  50    -0.430266109960E+02   -0.13388E+00   -0.31310E+01  2607   0.185E+00    0.623E-01
RMM:  51    -0.435099914109E+02   -0.48338E+00   -0.26587E+01  2669   0.170E+00    0.790E-01
RMM:  52    -0.438114708161E+02   -0.30148E+00   -0.30953E+01  4185   0.201E+00    0.788E-01
RMM:  53    -0.431275856862E+02    0.68389E+00   -0.32931E+01  4252   0.218E+00    0.725E-01
RMM:  54    -0.430318671196E+02    0.95719E-01   -0.19588E+01  4227   0.128E+00    0.861E-01
RMM:  55    -0.429060423404E+02    0.12582E+00   -0.38698E+01  4115   0.225E+00    0.705E-01
RMM:  56    -0.433764735893E+02   -0.47043E+00   -0.39223E+01  4155   0.214E+00    0.928E-01
RMM:  57    -0.432900564045E+02    0.86417E-01   -0.40954E+01  4183   0.243E+00    0.862E-01
RMM:  58    -0.429562977872E+02    0.33376E+00   -0.38049E+01  4270   0.222E+00    0.546E-01
RMM:  59    -0.434746266466E+02   -0.51833E+00   -0.31779E+01  4151   0.186E+00    0.789E-01
RMM:  60    -0.433849965848E+02    0.89630E-01   -0.41866E+01  3934   0.237E+00
 158 F= -.43384997E+02 E0= -.43394218E+02  d E =0.279338E+00  mag=     0.0031
       N       E                     dE             d eps       ncg     rms          rms(c)
DAV:   1    -0.421962975134E+02    0.12783E+01   -0.45161E+01  4096   0.305E+00    0.264E-01
RMM:   2    -0.422037551553E+02   -0.74576E-02   -0.72260E-03  4108   0.126E-01    0.179E-01
RMM:   3    -0.422038326811E+02   -0.77526E-04   -0.89086E-04  4224   0.536E-02    0.896E-02
RMM:   4    -0.422049307967E+02   -0.10981E-02   -0.27812E-04  4140   0.290E-02    0.591E-02
RMM:   5    -0.422062755273E+02   -0.13447E-02   -0.16016E-04  3682   0.223E-02    0.242E-02
RMM:   6    -0.422067871577E+02   -0.51163E-03   -0.22688E-05  2797   0.130E-02    0.123E-02
RMM:   7    -0.422070316079E+02   -0.24445E-03    0.37533E-05  2635   0.892E-03    0.603E-03
RMM:   8    -0.422071029611E+02   -0.71353E-04    0.18708E-04  2545   0.638E-03    0.420E-03
RMM:   9    -0.422037158949E+02    0.33871E-02    0.71181E-03  2526   0.432E-03    0.175E-02
RMM:  10    -0.423698588210E+02   -0.16614E+00    0.12790E-01  2421  -0.143E-02    0.357E-01
RMM:  11    -0.422826152363E+02    0.87244E-01   -0.38502E+00  2485   0.372E-01    0.302E-01
RMM:  12    -0.432164489180E+02   -0.93383E+00   -0.45354E+00  2510   0.412E-01    0.803E-01
RMM:  13    -0.435954681771E+02   -0.37902E+00   -0.25222E+01  2531   0.176E+00    0.904E-01
RMM:  14    -0.435764523734E+02    0.19016E-01   -0.35611E+01  2665   0.224E+00    0.710E-01
RMM:  15    -0.431175480617E+02    0.45890E+00   -0.27157E+01  2673   0.172E+00    0.820E-01
RMM:  16    -0.438086835556E+02   -0.69114E+00   -0.25889E+01  2655   0.174E+00    0.685E-01
RMM:  17    -0.452290724487E+02   -0.14204E+01   -0.15510E+01  2618   0.122E+00    0.100E+00
RMM:  18    -0.456309086475E+02   -0.40184E+00   -0.20502E+01  2656   0.161E+00    0.116E+00
RMM:  19    -0.453081604532E+02    0.32275E+00   -0.27294E+01  2663   0.199E+00    0.990E-01
RMM:  20    -0.445550988558E+02    0.75306E+00   -0.26664E+01  2705   0.192E+00    0.126E+00
RMM:  21    -0.439838958440E+02    0.57120E+00   -0.36673E+01  2690   0.242E+00    0.918E-01
RMM:  22    -0.438511827374E+02    0.13271E+00   -0.34247E+01  2701   0.210E+00    0.948E-01
RMM:  23    -0.432068196579E+02    0.64436E+00   -0.36642E+01  2666   0.230E+00    0.708E-01
RMM:  24    -0.434143507788E+02   -0.20753E+00   -0.34924E+01  2646   0.203E+00    0.128E+00
RMM:  25    -0.435127645877E+02   -0.98414E-01   -0.32802E+01  2628   0.213E+00    0.124E+00
RMM:  26    -0.432717674441E+02    0.24100E+00   -0.48935E+01  2596   0.256E+00    0.711E-01
RMM:  27    -0.434089860169E+02   -0.13722E+00   -0.22552E+01  2697   0.150E+00    0.120E+00
RMM:  28    -0.437610535779E+02   -0.35207E+00   -0.30575E+01  2681   0.195E+00    0.982E-01
RMM:  29    -0.437364736745E+02    0.24580E-01   -0.45615E+01  2653   0.260E+00    0.131E+00
RMM:  30    -0.437723345979E+02   -0.35861E-01   -0.37754E+01  2696   0.225E+00    0.107E+00
RMM:  31    -0.433468151286E+02    0.42552E+00   -0.36102E+01  2658   0.209E+00    0.101E+00
RMM:  32    -0.435220212877E+02   -0.17521E+00   -0.32188E+01  2687   0.191E+00    0.911E-01
RMM:  33    -0.438270893651E+02   -0.30507E+00   -0.50024E+01  2647   0.266E+00    0.822E-01
RMM:  34    -0.438364188476E+02   -0.93295E-02   -0.37904E+01  2679   0.233E+00    0.111E+00
RMM:  35    -0.438641610438E+02   -0.27742E-01   -0.43283E+01  2642   0.263E+00    0.879E-01
RMM:  36    -0.439169352950E+02   -0.52774E-01   -0.41708E+01  2669   0.243E+00    0.112E+00
RMM:  37    -0.444918917055E+02   -0.57496E+00   -0.38345E+01  2708   0.222E+00    0.884E-01
RMM:  38    -0.440198670890E+02    0.47202E+00   -0.42867E+01  2617   0.242E+00    0.136E+00
RMM:  39    -0.437647636976E+02    0.25510E+00   -0.34855E+01  2707   0.202E+00    0.920E-01
RMM:  40    -0.442532707922E+02   -0.48851E+00   -0.34923E+01  2636   0.208E+00    0.718E-01
RMM:  41    -0.440500773323E+02    0.20319E+00   -0.31002E+01  2725   0.179E+00    0.852E-01
RMM:  42    -0.436022474492E+02    0.44783E+00   -0.39096E+01  2625   0.229E+00    0.995E-01
RMM:  43    -0.441985631601E+02   -0.59632E+00   -0.47294E+01  2720   0.271E+00    0.104E+00
RMM:  44    -0.435940620212E+02    0.60450E+00   -0.47645E+01  2719   0.272E+00    0.892E-01
RMM:  45    -0.433355194789E+02    0.25854E+00   -0.36333E+01  2674   0.223E+00    0.864E-01
RMM:  46    -0.439092300522E+02   -0.57371E+00   -0.34537E+01  2708   0.204E+00    0.109E+00
RMM:  47    -0.442110443857E+02   -0.30181E+00   -0.40356E+01  2680   0.244E+00    0.101E+00
RMM:  48    -0.441181780405E+02    0.92866E-01   -0.41519E+01  2740   0.256E+00    0.985E-01
RMM:  49    -0.438959941824E+02    0.22218E+00   -0.49099E+01  2693   0.292E+00    0.102E+00
RMM:  50    -0.441848055681E+02   -0.28881E+00   -0.57505E+01  2719   0.309E+00    0.116E+00
RMM:  51    -0.437041566507E+02    0.48065E+00   -0.37340E+01  2738   0.243E+00    0.845E-01
RMM:  52    -0.444794567859E+02   -0.77530E+00   -0.31996E+01  4187   0.217E+00    0.908E-01
RMM:  53    -0.445038813176E+02   -0.24425E-01   -0.37328E+01  4253   0.245E+00    0.982E-01
RMM:  54    -0.443379636851E+02    0.16592E+00   -0.46457E+01  3552   0.273E+00    0.120E+00
RMM:  55    -0.443157690228E+02    0.22195E-01   -0.46859E+01  3775   0.272E+00    0.100E+00
RMM:  56    -0.437597036996E+02    0.55607E+00   -0.45836E+01  3035   0.269E+00    0.988E-01
RMM:  57    -0.436026308839E+02    0.15707E+00   -0.32451E+01  4166   0.214E+00    0.994E-01
RMM:  58    -0.437306148213E+02   -0.12798E+00   -0.32827E+01  4220   0.209E+00    0.789E-01
RMM:  59    -0.435565156369E+02    0.17410E+00   -0.34515E+01  4208   0.221E+00    0.859E-01
RMM:  60    -0.431738755661E+02    0.38264E+00   -0.37682E+01  4232   0.227E+00
 159 F= -.43173876E+02 E0= -.43168044E+02  d E =0.211121E+00  mag=    -0.0162
