       N       E                     dE             d eps       ncg     rms          rms(c)
DAV:   1     0.182771277952E+04    0.18277E+04   -0.28824E+05  7208   0.113E+03
DAV:   2    -0.502706222457E+03   -0.23304E+04   -0.51769E+04  7304   0.347E+02
DAV:   3    -0.129696462464E+05   -0.12467E+05   -0.12269E+05  7836   0.965E+01
DAV:   4    -0.208146815651E+05   -0.78450E+04   -0.20057E+05  8504   0.284E+01
DAV:   5    -0.159919660956E+04    0.19215E+05   -0.90429E+03  8256   0.307E+01    0.969E+03
