       N       E                     dE             d eps       ncg     rms          rms(c)
DAV:   1     0.383379962040E+04    0.38338E+04   -0.26977E+05  7240   0.112E+03
DAV:   2    -0.503922681651E+03   -0.43377E+04   -0.51292E+04  7360   0.347E+02
DAV:   3    -0.899359415616E+04   -0.84897E+04   -0.83326E+04  7832   0.962E+01
DAV:   4    -0.193389961473E+05   -0.10345E+05   -0.18549E+05  8464   0.300E+01
DAV:   5    -0.251127885038E+05   -0.57738E+04   -0.24373E+05  8568   0.248E+01    0.218E+03
RMM:   6     0.301739078383E+05    0.55287E+05   -0.36492E+04 10409   0.275E+02    0.178E+03
RMM:   7    -0.771816116786E+04   -0.37892E+05   -0.14447E+04 10082   0.160E+02    0.381E+02
RMM:   8    -0.149470869965E+04    0.62235E+04   -0.42955E+03  9838   0.885E+01    0.236E+02
RMM:   9    -0.877862421598E+03    0.61685E+03   -0.11282E+04  9685   0.103E+02    0.257E+02
RMM:  10     0.160291110145E+03    0.10382E+04   -0.77120E+02  9279   0.528E+01    0.206E+02
RMM:  11     0.224787910806E+03    0.64497E+02   -0.38150E+02  9616   0.376E+01    0.167E+02
RMM:  12     0.206645739531E+03   -0.18142E+02    0.16499E+02  9138   0.310E+01    0.150E+02
RMM:  13     0.372692708496E+03    0.16605E+03   -0.38419E+01  9472   0.350E+01    0.136E+02
RMM:  14     0.582305514189E+03    0.20961E+03    0.11219E+02  9283   0.272E+01    0.120E+02
RMM:  15     0.729124536731E+03    0.14682E+03    0.33644E+02  9169   0.247E+01    0.107E+02
RMM:  16     0.755846021005E+03    0.26721E+02    0.40792E+02  9322   0.210E+01    0.942E+01
RMM:  17     0.740270921653E+03   -0.15575E+02    0.42801E+02  8900   0.175E+01    0.870E+01
RMM:  18     0.698888768624E+03   -0.41382E+02    0.46406E+02  8432   0.183E+01    0.802E+01
RMM:  19     0.678196597661E+03   -0.20692E+02    0.51240E+02  8737   0.139E+01    0.736E+01
RMM:  20     0.637859045030E+03   -0.40338E+02    0.43085E+02  8227   0.149E+01    0.691E+01
RMM:  21     0.614106682432E+03   -0.23752E+02    0.53612E+02  8539   0.125E+01    0.662E+01
RMM:  22     0.562290562724E+03   -0.51816E+02    0.55394E+02  8303   0.124E+01    0.637E+01
RMM:  23     0.502166336262E+03   -0.60124E+02    0.47139E+02  8410   0.128E+01    0.617E+01
RMM:  24     0.458639781404E+03   -0.43527E+02    0.49395E+02  8470   0.124E+01    0.610E+01
RMM:  25     0.441787158748E+03   -0.16853E+02    0.45419E+02  8819   0.103E+01    0.605E+01
RMM:  26     0.444189505531E+03    0.24023E+01    0.34811E+02  9242   0.752E+00    0.606E+01
RMM:  27     0.443755261447E+03   -0.43424E+00    0.15853E+02  7872   0.729E+00    0.602E+01
RMM:  28     0.436418929086E+03   -0.73363E+01    0.23910E+02  8234   0.822E+00    0.602E+01
RMM:  29     0.440150394110E+03    0.37315E+01    0.12913E+02  8103   0.676E+00    0.602E+01
RMM:  30     0.432759318329E+03   -0.73911E+01    0.30528E+02  7829   0.824E+00    0.598E+01
RMM:  31     0.408063569070E+03   -0.24696E+02   -0.47879E+01  8301   0.677E+00    0.594E+01
RMM:  32     0.407786172831E+03   -0.27740E+00    0.10505E+02  7884   0.525E+00    0.592E+01
RMM:  33     0.411280488518E+03    0.34943E+01    0.50287E+01  8012   0.419E+00    0.593E+01
RMM:  34     0.417034688849E+03    0.57542E+01    0.58371E+01  7787   0.398E+00    0.593E+01
RMM:  35     0.422443709642E+03    0.54090E+01    0.50551E+01  8055   0.416E+00    0.593E+01
RMM:  36     0.422375991571E+03   -0.67718E-01    0.26904E+01  7842   0.403E+00    0.593E+01
RMM:  37     0.423758286052E+03    0.13823E+01    0.96954E+01  8022   0.381E+00    0.593E+01
RMM:  38     0.413266771162E+03   -0.10492E+02   -0.34388E+01  7301   0.437E+00    0.590E+01
RMM:  39     0.401701064610E+03   -0.11566E+02    0.27935E+01  7357   0.522E+00    0.586E+01
RMM:  40     0.396553335547E+03   -0.51477E+01   -0.40741E+01  7959   0.483E+00    0.582E+01
RMM:  41     0.393238965177E+03   -0.33144E+01    0.93411E+02  7717   0.102E+01    0.581E+01
RMM:  42     0.394566995044E+03    0.13280E+01    0.25268E+01  8207   0.331E+00    0.580E+01
RMM:  43     0.399204821365E+03    0.46378E+01    0.92859E+02  7290   0.932E+00    0.579E+01
RMM:  44     0.399227702481E+03    0.22881E-01    0.54149E+01  7757   0.396E+00    0.577E+01
RMM:  45     0.399362837644E+03    0.13514E+00    0.87521E+02  7804   0.943E+00    0.575E+01
RMM:  46     0.409078951284E+03    0.97161E+01    0.31289E+02  8323   0.493E+00    0.575E+01
RMM:  47     0.423316669067E+03    0.14238E+02    0.22866E+02  7833   0.456E+00    0.577E+01
RMM:  48     0.425050396171E+03    0.17337E+01    0.19724E+02  7998   0.350E+00    0.577E+01
RMM:  49     0.429557576262E+03    0.45072E+01    0.18775E+02  7706   0.378E+00    0.577E+01
RMM:  50     0.435691789100E+03    0.61342E+01    0.32144E+02  8153   0.334E+00    0.577E+01
RMM:  51    -0.392077323691E+03   -0.82777E+03   -0.62417E+02  7085   0.363E+01    0.683E+01
RMM:  52    -0.420492093093E+03   -0.28415E+02    0.12860E+02  7716   0.140E+01    0.638E+01
RMM:  53    -0.415133055756E+03    0.53590E+01    0.10155E+02  7607   0.967E+00    0.622E+01
RMM:  54    -0.419037954184E+03   -0.39049E+01    0.20720E+02  8797   0.461E+00    0.632E+01
RMM:  55    -0.427354834904E+03   -0.83169E+01    0.20664E+02  7607   0.481E+00    0.613E+01
RMM:  56    -0.441954273921E+03   -0.14599E+02    0.15287E+02  7388   0.117E+01    0.539E+01
RMM:  57    -0.434561619727E+03    0.73927E+01    0.47208E+01  7767   0.638E+00    0.475E+01
RMM:  58    -0.419369151123E+03    0.15192E+02    0.64404E+01  7509   0.736E+00    0.451E+01
RMM:  59    -0.399934805184E+03    0.19434E+02    0.18381E+02  7042   0.900E+00    0.399E+01
RMM:  60    -0.417958864782E+03   -0.18024E+02    0.18479E+02  7154   0.110E+01
