       N       E                     dE             d eps       ncg     rms          rms(c)
DAV:   1     0.102306673073E+05    0.10231E+05   -0.69887E+05 14400   0.105E+03
DAV:   2     0.743176759883E+02   -0.10156E+05   -0.95384E+04 15592   0.258E+02
DAV:   3    -0.578026640503E+03   -0.65234E+03   -0.60130E+03 14896   0.569E+01
DAV:   4    -0.594563108160E+03   -0.16536E+02   -0.16370E+02 15000   0.885E+00
DAV:   5    -0.595286853636E+03   -0.72375E+00   -0.72278E+00 17824   0.171E+00    0.686E+01
RMM:   6    -0.699127879117E+03   -0.10384E+03   -0.33973E+02 13106   0.137E+01    0.112E+02
RMM:   7    -0.516147980752E+03    0.18298E+03   -0.44963E+01 13090   0.499E+00    0.466E+01
RMM:   8    -0.532520644832E+03   -0.16373E+02   -0.15631E+01 13100   0.272E+00    0.456E+01
RMM:   9    -0.480986680617E+03    0.51534E+02   -0.44429E+01 13120   0.445E+00    0.222E+01
RMM:  10    -0.486823724681E+03   -0.58370E+01   -0.37127E+00 13160   0.137E+00    0.131E+01
RMM:  11    -0.502610477096E+03   -0.15787E+02   -0.99113E+00 13103   0.199E+00    0.932E+00
RMM:  12    -0.517349316358E+03   -0.14739E+02   -0.80115E+00 13099   0.165E+00    0.731E+00
RMM:  13    -0.530768158523E+03   -0.13419E+02   -0.76618E+00 13096   0.150E+00    0.614E+00
RMM:  14    -0.539237618545E+03   -0.84695E+01   -0.94302E+00 13123   0.169E+00    0.472E+00
RMM:  15    -0.546911650546E+03   -0.76740E+01   -0.44631E+00 13111   0.112E+00    0.438E+00
RMM:  16    -0.549388465479E+03   -0.24768E+01   -0.33408E+00 13078   0.932E-01    0.265E+00
RMM:  17    -0.555087455541E+03   -0.56990E+01   -0.18890E+00 13061   0.634E-01    0.189E+00
RMM:  18    -0.556558651399E+03   -0.14712E+01   -0.10209E+00 13085   0.477E-01    0.151E+00
RMM:  19    -0.557477602670E+03   -0.91895E+00   -0.35223E-01 13088   0.305E-01    0.124E+00
RMM:  20    -0.558227093145E+03   -0.74949E+00   -0.10038E-01 13080   0.165E-01    0.110E+00
RMM:  21    -0.559996791986E+03   -0.17697E+01   -0.24930E-01 13075   0.216E-01    0.833E-01
RMM:  22    -0.560883112492E+03   -0.88632E+00   -0.77439E-02 13097   0.123E-01    0.639E-01
RMM:  23    -0.561544717326E+03   -0.66160E+00   -0.41108E-02 13081   0.884E-02    0.501E-01
RMM:  24    -0.562404551619E+03   -0.85983E+00   -0.28104E-02 13110   0.764E-02    0.309E-01
RMM:  25    -0.563464320403E+03   -0.10598E+01   -0.22517E-02 13098   0.884E-02    0.184E-01
RMM:  26    -0.563823280110E+03   -0.35896E+00   -0.16207E-02 13082   0.680E-02    0.118E-01
RMM:  27    -0.563892778543E+03   -0.69498E-01   -0.54922E-03 13057   0.376E-02    0.899E-02
RMM:  28    -0.563926738586E+03   -0.33960E-01   -0.16349E-03 11719   0.182E-02    0.705E-02
RMM:  29    -0.563968903108E+03   -0.42165E-01   -0.12428E-03 12115   0.222E-02    0.575E-02
RMM:  30    -0.563985353019E+03   -0.16450E-01   -0.44970E-04 10946   0.153E-02    0.474E-02
RMM:  31    -0.563995790696E+03   -0.10438E-01   -0.31509E-04 10560   0.936E-03    0.218E-02
RMM:  32    -0.564003311284E+03   -0.75206E-02   -0.14074E-04  9127   0.561E-03    0.150E-02
RMM:  33    -0.564005233224E+03   -0.19219E-02   -0.55357E-05  8536   0.380E-03    0.137E-02
RMM:  34    -0.564005963823E+03   -0.73060E-03   -0.44158E-05  8374   0.277E-03    0.707E-03
RMM:  35    -0.564006601568E+03   -0.63775E-03   -0.31474E-05  8134   0.270E-03    0.281E-03
RMM:  36    -0.564006811754E+03   -0.21019E-03   -0.12047E-05  6848   0.167E-03    0.196E-03
RMM:  37    -0.564006901402E+03   -0.89648E-04   -0.54843E-06  5296   0.108E-03    0.907E-04
RMM:  38    -0.564006940796E+03   -0.39394E-04   -0.28008E-06  4936   0.929E-04    0.682E-04
RMM:  39    -0.564006958904E+03   -0.18107E-04   -0.92031E-07  3512   0.710E-04    0.703E-04
RMM:  40    -0.564006967867E+03   -0.89637E-05   -0.31960E-07  2880   0.606E-04
   1 F= -.56400697E+03 E0= -.56392224E+03  d E =-.564007E+03  mag=    71.2877
       N       E                     dE             d eps       ncg     rms          rms(c)
DAV:   1    -0.564236818761E+03   -0.22986E+00   -0.11597E+01 12784   0.237E+00    0.227E-01
RMM:   2    -0.564248335302E+03   -0.11517E-01   -0.11212E-01 12952   0.336E-01    0.194E-01
RMM:   3    -0.564249587537E+03   -0.12522E-02   -0.57881E-03 13271   0.673E-02    0.291E-01
RMM:   4    -0.564247824575E+03    0.17630E-02   -0.71100E-04 13109   0.237E-02    0.127E-01
RMM:   5    -0.564247576791E+03    0.24778E-03   -0.57490E-04 12305   0.182E-02    0.671E-02
RMM:   6    -0.564247508353E+03    0.68438E-04   -0.55105E-04 12215   0.166E-02    0.268E-02
RMM:   7    -0.564247513554E+03   -0.52013E-05   -0.32083E-05  9116   0.464E-03
   2 F= -.56424751E+03 E0= -.56416306E+03  d E =-.240546E+00  mag=    71.2847
       N       E                     dE             d eps       ncg     rms          rms(c)
DAV:   1    -0.564677252531E+03   -0.42974E+00   -0.10439E+02 12536   0.710E+00    0.705E-01
RMM:   2    -0.564781308278E+03   -0.10406E+00   -0.10136E+00 13104   0.101E+00    0.598E-01
RMM:   3    -0.564793443858E+03   -0.12136E-01   -0.52755E-02 13269   0.204E-01    0.883E-01
RMM:   4    -0.564776814434E+03    0.16629E-01   -0.69972E-03 13097   0.735E-02    0.396E-01
RMM:   5    -0.564774376044E+03    0.24384E-02   -0.53196E-03 13088   0.553E-02    0.219E-01
RMM:   6    -0.564773462077E+03    0.91397E-03   -0.47180E-03 12426   0.483E-02    0.811E-02
RMM:   7    -0.564773450041E+03    0.12036E-04   -0.25606E-04 12392   0.126E-02    0.646E-02
RMM:   8    -0.564773332122E+03    0.11792E-03   -0.36939E-05  9871   0.482E-03    0.424E-02
RMM:   9    -0.564773171333E+03    0.16079E-03   -0.24353E-04 11981   0.110E-02    0.751E-03
RMM:  10    -0.564773138794E+03    0.32539E-04   -0.76276E-06  7013   0.234E-03    0.832E-03
RMM:  11    -0.564773129621E+03    0.91731E-05   -0.71128E-06  6749   0.207E-03
   3 F= -.56477313E+03 E0= -.56468948E+03  d E =-.766162E+00  mag=    71.2627
       N       E                     dE             d eps       ncg     rms          rms(c)
DAV:   1    -0.564854773021E+03   -0.81634E-01   -0.41799E+02 12432   0.142E+01    0.148E+00
RMM:   2    -0.565271403765E+03   -0.41663E+00   -0.40546E+00 13102   0.202E+00    0.126E+00
RMM:   3    -0.565322094966E+03   -0.50691E-01   -0.21361E-01 13270   0.411E-01    0.177E+00
RMM:   4    -0.565254221025E+03    0.67874E-01   -0.31150E-02 13088   0.153E-01    0.867E-01
RMM:   5    -0.565243281067E+03    0.10940E-01   -0.27363E-02 13111   0.125E-01    0.466E-01
RMM:   6    -0.565239112584E+03    0.41685E-02   -0.15438E-02 12506   0.876E-02    0.165E-01
RMM:   7    -0.565238926822E+03    0.18576E-03   -0.61301E-04 12573   0.206E-02    0.119E-01
RMM:   8    -0.565238558532E+03    0.36829E-03   -0.15936E-04 12212   0.962E-03    0.763E-02
RMM:   9    -0.565238118130E+03    0.44040E-03   -0.71316E-04 12259   0.186E-02    0.140E-02
RMM:  10    -0.565238073578E+03    0.44552E-04   -0.33361E-05  9278   0.445E-03    0.160E-02
RMM:  11    -0.565238128155E+03   -0.54577E-04   -0.20805E-05  7342   0.346E-03    0.107E-02
RMM:  12    -0.565238242847E+03   -0.11469E-03   -0.51703E-06  7173   0.179E-03    0.812E-03
RMM:  13    -0.565238439735E+03   -0.19689E-03   -0.41014E-06  6448   0.107E-03    0.597E-03
RMM:  14    -0.565238894609E+03   -0.45487E-03   -0.26936E-05  8084   0.203E-03    0.343E-03
RMM:  15    -0.565239035670E+03   -0.14106E-03   -0.72995E-06  5892   0.112E-03    0.304E-03
RMM:  16    -0.565239227180E+03   -0.19151E-03   -0.41401E-06  4462   0.852E-04    0.202E-03
RMM:  17    -0.565239391644E+03   -0.16446E-03   -0.33532E-06  5574   0.886E-04    0.195E-03
RMM:  18    -0.565239545754E+03   -0.15411E-03   -0.25458E-06  3851   0.783E-04    0.133E-03
RMM:  19    -0.565239669734E+03   -0.12398E-03   -0.17480E-06  5117   0.914E-04    0.122E-03
RMM:  20    -0.565239755941E+03   -0.86207E-04   -0.71448E-07  3675   0.738E-04    0.138E-03
RMM:  21    -0.565239834500E+03   -0.78559E-04   -0.55342E-07  3766   0.696E-04    0.878E-04
RMM:  22    -0.565239909154E+03   -0.74655E-04   -0.80293E-07  4194   0.781E-04    0.853E-04
RMM:  23    -0.565239923541E+03   -0.14387E-04   -0.16685E-07  2309   0.541E-04    0.691E-04
RMM:  24    -0.565239942077E+03   -0.18536E-04   -0.26582E-07  2994   0.613E-04    0.328E-04
RMM:  25    -0.565239945033E+03   -0.29555E-05   -0.67657E-08  1715   0.511E-04
   4 F= -.56523995E+03 E0= -.56515763E+03  d E =-.123298E+01  mag=    71.1586
       N       E                     dE             d eps       ncg     rms          rms(c)
DAV:   1    -0.564704165474E+03    0.53578E+00   -0.16840E+03 12648   0.287E+01    0.313E+00
RMM:   2    -0.566399912202E+03   -0.16957E+01   -0.16321E+01 13103   0.405E+00    0.279E+00
RMM:   3    -0.566597338969E+03   -0.19743E+00   -0.88827E-01 13271   0.841E-01    0.366E+00
RMM:   4    -0.566302279729E+03    0.29506E+00   -0.13378E-01 13074   0.315E-01    0.172E+00
RMM:   5    -0.566258494945E+03    0.43785E-01   -0.12331E-01 13105   0.268E-01    0.895E-01
RMM:   6    -0.566243049867E+03    0.15445E-01   -0.49804E-02 12906   0.158E-01    0.310E-01
RMM:   7    -0.566242301219E+03    0.74865E-03   -0.18161E-03 12963   0.361E-02    0.210E-01
RMM:   8    -0.566241404062E+03    0.89716E-03   -0.65914E-04 12434   0.192E-02    0.130E-01
RMM:   9    -0.566240367206E+03    0.10369E-02   -0.19100E-03 12390   0.306E-02    0.246E-02
RMM:  10    -0.566240212452E+03    0.15475E-03   -0.77983E-05 11434   0.682E-03    0.243E-02
RMM:  11    -0.566240294066E+03   -0.81614E-04   -0.30958E-05  8933   0.431E-03    0.169E-02
RMM:  12    -0.566240544407E+03   -0.25034E-03   -0.15979E-05  7456   0.298E-03    0.128E-02
RMM:  13    -0.566240897843E+03   -0.35344E-03   -0.61722E-06  7508   0.154E-03    0.964E-03
RMM:  14    -0.566242121992E+03   -0.12241E-02   -0.57114E-05  8700   0.301E-03    0.588E-03
RMM:  15    -0.566242544000E+03   -0.42201E-03   -0.20034E-05  7876   0.189E-03    0.517E-03
RMM:  16    -0.566242849225E+03   -0.30522E-03   -0.93158E-06  6638   0.132E-03    0.342E-03
RMM:  17    -0.566243089834E+03   -0.24061E-03   -0.69817E-06  6085   0.107E-03    0.284E-03
RMM:  18    -0.566243342214E+03   -0.25238E-03   -0.57580E-06  3896   0.822E-04    0.191E-03
RMM:  19    -0.566243547612E+03   -0.20540E-03   -0.52560E-06  6404   0.113E-03    0.202E-03
RMM:  20    -0.566243696302E+03   -0.14869E-03   -0.11275E-06  3022   0.646E-04    0.142E-03
RMM:  21    -0.566243928779E+03   -0.23248E-03   -0.24759E-06  5922   0.102E-03    0.141E-03
RMM:  22    -0.566244033860E+03   -0.10508E-03   -0.61322E-07  2721   0.614E-04    0.920E-04
RMM:  23    -0.566244109661E+03   -0.75801E-04   -0.84911E-07  4201   0.775E-04    0.377E-04
RMM:  24    -0.566244133807E+03   -0.24146E-04   -0.41331E-07  3370   0.677E-04    0.303E-04
RMM:  25    -0.566244136526E+03   -0.27192E-05   -0.70752E-08  1835   0.529E-04
   5 F= -.56624414E+03 E0= -.56616430E+03  d E =-.223717E+01  mag=    71.0354
       N       E                     dE             d eps       ncg     rms          rms(c)
DAV:   1    -0.561113924085E+03    0.51302E+01   -0.68984E+03 13056   0.591E+01    0.803E+00
RMM:   2    -0.568069559582E+03   -0.69556E+01   -0.65703E+01 13103   0.811E+00    0.644E+00
RMM:   3    -0.569555659340E+03   -0.14861E+01   -0.39603E+00 13232   0.178E+00    0.955E+00
RMM:   4    -0.567429029733E+03    0.21266E+01   -0.79748E-01 13070   0.747E-01    0.319E+00
RMM:   5    -0.567285515971E+03    0.14351E+00   -0.41974E-01 13100   0.507E-01    0.149E+00
RMM:   6    -0.567243251455E+03    0.42265E-01   -0.10880E-01 13144   0.240E-01    0.517E-01
RMM:   7    -0.567241076884E+03    0.21746E-02   -0.55358E-03 13158   0.622E-02    0.305E-01
RMM:   8    -0.567239930551E+03    0.11463E-02   -0.18034E-03 12521   0.312E-02    0.201E-01
RMM:   9    -0.567238240029E+03    0.16905E-02   -0.20277E-03 12869   0.318E-02    0.488E-02
RMM:  10    -0.567238486919E+03   -0.24689E-03   -0.11692E-04 12121   0.838E-03    0.330E-02
RMM:  11    -0.567239196365E+03   -0.70945E-03   -0.23176E-05  8215   0.308E-03    0.315E-02
RMM:  12    -0.567240864637E+03   -0.16683E-02   -0.51798E-05  9059   0.448E-03    0.229E-02
RMM:  13    -0.567243081559E+03   -0.22169E-02   -0.44240E-05  8546   0.333E-03    0.187E-02
RMM:  14    -0.567246714795E+03   -0.36332E-02   -0.11188E-04  9346   0.396E-03    0.129E-02
RMM:  15    -0.567248195087E+03   -0.14803E-02   -0.87068E-05  8800   0.362E-03    0.905E-03
RMM:  16    -0.567248681070E+03   -0.48598E-03   -0.27676E-05  7809   0.226E-03    0.695E-03
RMM:  17    -0.567249237795E+03   -0.55672E-03   -0.17335E-05  6987   0.142E-03    0.499E-03
RMM:  18    -0.567249880553E+03   -0.64276E-03   -0.21869E-05  7418   0.155E-03    0.415E-03
RMM:  19    -0.567250353441E+03   -0.47289E-03   -0.87834E-06  4970   0.103E-03    0.334E-03
RMM:  20    -0.567251019822E+03   -0.66638E-03   -0.11470E-05  6988   0.140E-03    0.210E-03
RMM:  21    -0.567251339535E+03   -0.31971E-03   -0.32851E-06  4554   0.879E-04    0.172E-03
RMM:  22    -0.567251694371E+03   -0.35484E-03   -0.24803E-06  5237   0.945E-04    0.107E-03
RMM:  23    -0.567251928287E+03   -0.23392E-03   -0.20122E-06  5201   0.941E-04    0.466E-04
RMM:  24    -0.567251972740E+03   -0.44453E-04   -0.65371E-07  3752   0.707E-04    0.276E-04
RMM:  25    -0.567251978742E+03   -0.60020E-05   -0.15335E-07  2377   0.552E-04
   6 F= -.56725198E+03 E0= -.56717658E+03  d E =-.324501E+01  mag=    70.8711
       N       E                     dE             d eps       ncg     rms          rms(c)
DAV:   1    -0.567269815901E+03   -0.17843E-01   -0.34995E+02 12664   0.124E+01    0.160E+00
RMM:   2    -0.567683403394E+03   -0.41359E+00   -0.36738E+00 13116   0.183E+00    0.205E+00
RMM:   3    -0.567652857198E+03    0.30546E-01   -0.21895E-01 13396   0.403E-01    0.127E+00
RMM:   4    -0.567625292533E+03    0.27565E-01   -0.32913E-02 13060   0.150E-01    0.108E+00
RMM:   5    -0.567614699369E+03    0.10593E-01   -0.37259E-02 13100   0.137E-01    0.648E-01
RMM:   6    -0.567609621336E+03    0.50780E-02   -0.19456E-02 13118   0.979E-02    0.243E-01
RMM:   7    -0.567607944594E+03    0.16767E-02   -0.20029E-03 12431   0.325E-02    0.136E-01
RMM:   8    -0.567607487774E+03    0.45682E-03   -0.80698E-04 12283   0.189E-02    0.642E-02
RMM:   9    -0.567607246911E+03    0.24086E-03   -0.33693E-04 12025   0.122E-02    0.211E-02
RMM:  10    -0.567607158429E+03    0.88481E-04   -0.97409E-05 11188   0.697E-03    0.892E-03
RMM:  11    -0.567607220916E+03   -0.62487E-04   -0.53527E-06  6926   0.205E-03    0.648E-03
RMM:  12    -0.567607469499E+03   -0.24858E-03   -0.11567E-05  7404   0.217E-03    0.512E-03
RMM:  13    -0.567607734274E+03   -0.26478E-03   -0.46037E-06  6039   0.109E-03    0.396E-03
RMM:  14    -0.567608259679E+03   -0.52541E-03   -0.10298E-05  7464   0.147E-03    0.230E-03
RMM:  15    -0.567608545546E+03   -0.28587E-03   -0.38003E-06  4576   0.896E-04    0.118E-03
RMM:  16    -0.567608737318E+03   -0.19177E-03   -0.23378E-06  4785   0.861E-04    0.922E-04
RMM:  17    -0.567608843951E+03   -0.10663E-03   -0.14070E-06  3653   0.701E-04    0.838E-04
RMM:  18    -0.567608902019E+03   -0.58068E-04   -0.10750E-06  3342   0.662E-04    0.473E-04
RMM:  19    -0.567608918886E+03   -0.16868E-04   -0.45922E-07  2459   0.600E-04    0.252E-04
RMM:  20    -0.567608923839E+03   -0.49525E-05   -0.16165E-07  2027   0.575E-04
   7 F= -.56760892E+03 E0= -.56753933E+03  d E =-.356945E+00  mag=    70.9062
       N       E                     dE             d eps       ncg     rms          rms(c)
DAV:   1    -0.565839763825E+03    0.17692E+01   -0.26637E+03 12672   0.346E+01    0.523E+00
RMM:   2    -0.569059313262E+03   -0.32195E+01   -0.28451E+01 13134   0.513E+00    0.575E+00
RMM:   3    -0.568942678688E+03    0.11663E+00   -0.18156E+00 13287   0.118E+00    0.437E+00
RMM:   4    -0.568551828958E+03    0.39085E+00   -0.33752E-01 13067   0.477E-01    0.285E+00
RMM:   5    -0.568476342272E+03    0.75487E-01   -0.21934E-01 13100   0.345E-01    0.158E+00
RMM:   6    -0.568443733126E+03    0.32609E-01   -0.95233E-02 13155   0.225E-01    0.497E-01
RMM:   7    -0.568436658335E+03    0.70748E-02   -0.11858E-02 12883   0.808E-02    0.269E-01
RMM:   8    -0.568435100368E+03    0.15580E-02   -0.36079E-03 12455   0.405E-02    0.114E-01
RMM:   9    -0.568434631611E+03    0.46876E-03   -0.78352E-04 12385   0.193E-02    0.487E-02
RMM:  10    -0.568434616951E+03    0.14660E-04   -0.25461E-04 12149   0.115E-02    0.260E-02
RMM:  11    -0.568435130105E+03   -0.51315E-03   -0.24935E-05  8165   0.373E-03    0.209E-02
RMM:  12    -0.568436516637E+03   -0.13865E-02   -0.72373E-05  9659   0.468E-03    0.149E-02
RMM:  13    -0.568437605315E+03   -0.10887E-02   -0.29595E-05  7927   0.258E-03    0.128E-02
RMM:  14    -0.568439055808E+03   -0.14505E-02   -0.50055E-05  8595   0.314E-03    0.942E-03
RMM:  15    -0.568439658384E+03   -0.60258E-03   -0.19184E-05  7892   0.204E-03    0.500E-03
RMM:  16    -0.568440308255E+03   -0.64987E-03   -0.12137E-05  7071   0.156E-03    0.387E-03
RMM:  17    -0.568440783199E+03   -0.47494E-03   -0.68636E-06  4980   0.106E-03    0.304E-03
RMM:  18    -0.568441253114E+03   -0.46991E-03   -0.86684E-06  6305   0.118E-03    0.245E-03
RMM:  19    -0.568441626083E+03   -0.37297E-03   -0.67475E-06  6460   0.117E-03    0.223E-03
RMM:  20    -0.568441961938E+03   -0.33585E-03   -0.24897E-06  5141   0.935E-04    0.146E-03
RMM:  21    -0.568442246711E+03   -0.28477E-03   -0.19488E-06  5483   0.916E-04    0.111E-03
RMM:  22    -0.568442422778E+03   -0.17607E-03   -0.15381E-06  4800   0.868E-04    0.568E-04
RMM:  23    -0.568442470876E+03   -0.48097E-04   -0.87810E-07  4451   0.808E-04    0.349E-04
RMM:  24    -0.568442476710E+03   -0.58344E-05   -0.27087E-07  2879   0.559E-04
   8 F= -.56844248E+03 E0= -.56839439E+03  d E =-.119050E+01  mag=    71.1541
       N       E                     dE             d eps       ncg     rms          rms(c)
DAV:   1    -0.568510699377E+03   -0.68229E-01   -0.32107E+01 12512   0.380E+00    0.565E-01
RMM:   2    -0.568547337023E+03   -0.36638E-01   -0.33155E-01 13110   0.555E-01    0.650E-01
RMM:   3    -0.568545543945E+03    0.17931E-02   -0.19745E-02 13390   0.122E-01    0.419E-01
RMM:   4    -0.568543048316E+03    0.24956E-02   -0.39092E-03 13072   0.510E-02    0.398E-01
RMM:   5    -0.568541940280E+03    0.11080E-02   -0.46382E-03 13100   0.494E-02    0.207E-01
RMM:   6    -0.568541301545E+03    0.63873E-03   -0.11680E-03 12498   0.245E-02    0.796E-02
RMM:   7    -0.568541116354E+03    0.18519E-03   -0.27099E-04 12047   0.114E-02    0.403E-02
RMM:   8    -0.568541064324E+03    0.52030E-04   -0.84462E-05 11187   0.621E-03    0.189E-02
RMM:   9    -0.568541027638E+03    0.36686E-04   -0.32802E-05  8569   0.410E-03    0.647E-03
RMM:  10    -0.568541009042E+03    0.18597E-04   -0.99813E-06  6586   0.267E-03    0.335E-03
RMM:  11    -0.568541012138E+03   -0.30964E-05   -0.20790E-06  6304   0.138E-03
   9 F= -.56854101E+03 E0= -.56849022E+03  d E =-.128903E+01  mag=    71.1325
