       N       E                     dE             d eps       ncg     rms          rms(c)
DAV:   1     0.283290454642E+05    0.28329E+05   -0.47281E+05 12388   0.161E+03
DAV:   2     0.528033712408E+04   -0.23049E+05   -0.20889E+05 11636   0.890E+02
DAV:   3     0.165769750941E+04   -0.36226E+04   -0.32398E+04 17548   0.659E+02
DAV:   4     0.108417865761E+04   -0.57352E+03   -0.52072E+03 17808   0.305E+02
DAV:   5     0.999883765153E+03   -0.84295E+02   -0.78769E+02 17808   0.871E+01    0.164E+03
RMM:   6    -0.292259459970E+04   -0.39225E+04   -0.43945E+03 12771   0.112E+02    0.237E+03
RMM:   7    -0.252099846934E+05   -0.22287E+05   -0.58458E+04 14758   0.272E+02    0.188E+04
RMM:   8    -0.185464766251E+05    0.66635E+04   -0.64973E+04  8970   0.159E+03    0.129E+04
RMM:   9    -0.217820659103E+05   -0.32356E+04    0.97313E+02 10833   0.192E+03    0.205E+04
RMM:  10    -0.273410213590E+05   -0.55590E+04   -0.55221E+04  9072   0.220E+03    0.286E+04
RMM:  11    -0.279136163218E+05   -0.57259E+03   -0.53667E+04  8973   0.238E+03    0.307E+04
RMM:  12    -0.279178330308E+05   -0.42167E+01   -0.43406E+04  9063   0.250E+03    0.326E+04
RMM:  13    -0.294887112707E+05   -0.15709E+04   -0.38871E+04  8927   0.255E+03    0.335E+04
RMM:  14    -0.344225029620E+05   -0.49338E+04    0.16418E+04  9000   0.294E+03    0.429E+04
RMM:  15    -0.267288289594E+05    0.76937E+04   -0.52292E+04  8911   0.240E+03    0.275E+04
RMM:  16    -0.232523675253E+05    0.34765E+04    0.25748E+04  8908   0.260E+03    0.343E+04
RMM:  17    -0.289926893267E+05   -0.57403E+04   -0.15764E+04  9007   0.259E+03    0.307E+04
RMM:  18    -0.300373347269E+05   -0.10446E+04    0.14008E+04  8907   0.261E+03    0.339E+04
RMM:  19    -0.277443503396E+05    0.22930E+04   -0.43967E+03  8931   0.227E+03    0.262E+04
RMM:  20    -0.183753712056E+05    0.93690E+04   -0.97979E+03  8908   0.206E+03    0.208E+04
RMM:  21    -0.204592875547E+05   -0.20839E+04    0.14298E+04  8909   0.210E+03    0.222E+04
RMM:  22    -0.246636813389E+04    0.17993E+05   -0.19587E+04  8905   0.134E+03    0.845E+03
RMM:  23     0.119560837001E+05    0.14422E+05   -0.28386E+04  9068   0.945E+02    0.479E+03
RMM:  24     0.661119448371E+04   -0.53449E+04   -0.10172E+04  9034   0.741E+02    0.295E+03
RMM:  25     0.546645984059E+04   -0.11447E+04   -0.88022E+03 10189   0.580E+02    0.210E+03
RMM:  26     0.470493061172E+04   -0.76153E+03   -0.71973E+03 11533   0.409E+02    0.241E+03
RMM:  27     0.576144404020E+04    0.10565E+04   -0.63206E+03 13247   0.265E+02    0.242E+03
RMM:  28     0.432330866667E+04   -0.14381E+04   -0.52757E+03 13675   0.217E+02    0.241E+03
RMM:  29     0.103473358507E+05    0.60240E+04   -0.33438E+04 14499   0.340E+02    0.247E+04
RMM:  30     0.827089963667E+04   -0.20764E+04   -0.78475E+04 13456   0.570E+02    0.555E+04
RMM:  31    -0.241302499836E+05   -0.32401E+05   -0.30284E+05 10641   0.142E+03    0.928E+04
RMM:  32    -0.416942396339E+05   -0.17564E+05   -0.21419E+05 13133   0.121E+03    0.878E+04
RMM:  33    -0.343082235891E+05    0.73860E+04   -0.13756E+05 12710   0.941E+02    0.445E+04
RMM:  34    -0.595783409222E+04    0.28350E+05   -0.46025E+04  9078   0.954E+02    0.242E+03
RMM:  35     0.181459613318E+04    0.77724E+04   -0.18958E+04  8928   0.739E+02    0.188E+03
RMM:  36     0.152000298868E+04   -0.29459E+03   -0.10511E+04 10504   0.399E+02    0.254E+03
RMM:  37     0.462766736667E+04    0.31077E+04   -0.22764E+04 14676   0.521E+02    0.348E+03
RMM:  38     0.329729962439E+04   -0.13304E+04   -0.20874E+04 14806   0.407E+02    0.173E+03
RMM:  39     0.257279106076E+04   -0.72451E+03   -0.21434E+04 15365   0.295E+02    0.112E+03
RMM:  40    -0.144598415854E+04   -0.40188E+04   -0.30403E+04 15428   0.339E+02    0.128E+03
RMM:  41    -0.321478647571E+04   -0.17688E+04   -0.22250E+04 14470   0.307E+02    0.155E+03
RMM:  42    -0.569329503339E+04   -0.24785E+04   -0.20834E+04 14489   0.289E+02    0.166E+03
RMM:  43    -0.759159209955E+04   -0.18983E+04   -0.19106E+04 14053   0.247E+02    0.182E+03
RMM:  44    -0.835808863809E+04   -0.76650E+03   -0.13370E+04 13931   0.227E+02    0.203E+03
RMM:  45    -0.665452758359E+04    0.17036E+04   -0.92133E+03 14069   0.142E+02    0.206E+03
RMM:  46    -0.139366542720E+04    0.52609E+04   -0.14305E+03 14250   0.902E+01    0.190E+03
RMM:  47     0.811655026755E+03    0.22053E+04   -0.13135E+03 14247   0.432E+01    0.174E+03
RMM:  48     0.969433925399E+03    0.15778E+03   -0.56666E+02 14576   0.401E+01    0.179E+03
RMM:  49     0.936761551903E+03   -0.32672E+02   -0.41993E+02 14643   0.203E+01    0.180E+03
RMM:  50     0.931200675406E+03   -0.55609E+01   -0.29793E+02 14943   0.163E+01    0.179E+03
RMM:  51     0.993696128344E+03    0.62495E+02   -0.58776E+02 13651   0.364E+01    0.183E+03
RMM:  52     0.613551321514E+03   -0.38014E+03   -0.83849E+02 13611   0.266E+01    0.169E+03
RMM:  53     0.812041693595E+03    0.19849E+03   -0.24753E+02 12487   0.342E+01    0.196E+03
RMM:  54     0.806679275589E+03   -0.53624E+01   -0.18637E+02 14280   0.123E+01    0.204E+03
RMM:  55     0.805214466045E+03   -0.14648E+01   -0.11196E+02 14142   0.914E+00    0.203E+03
RMM:  56    -0.306187093629E+04   -0.38671E+04   -0.19952E+03 14384   0.104E+02    0.184E+03
RMM:  57    -0.348516086374E+04   -0.42329E+03   -0.34312E+03 14116   0.487E+01    0.105E+03
RMM:  58    -0.169113329814E+04    0.17940E+04   -0.10310E+03 10116   0.171E+02    0.185E+03
RMM:  59    -0.172857009124E+04   -0.37437E+02   -0.31366E+02 13089   0.694E+01    0.191E+03
RMM:  60    -0.499824668025E+03    0.12287E+04   -0.20967E+02 14142   0.290E+01
   1 F= -.49982467E+03 E0= -.49982817E+03  d E =-.499825E+03  mag=    41.3288
       N       E                     dE             d eps       ncg     rms          rms(c)
DAV:   1     0.173956548871E+03    0.19025E+04   -0.92492E+03 13472   0.271E+02    0.116E+03
RMM:   2    -0.676797604434E+04   -0.69419E+04   -0.85858E+03 14316   0.309E+02    0.171E+03
RMM:   3    -0.382231584141E+03    0.63857E+04   -0.36521E+03 13339   0.157E+02    0.116E+03
RMM:   4    -0.111358912440E+04   -0.73136E+03   -0.12345E+03 14064   0.923E+01    0.113E+03
RMM:   5    -0.371850302422E+05   -0.36071E+05   -0.94519E+04 14164   0.849E+02    0.536E+04
RMM:   6    -0.147212390728E+04    0.35713E+05   -0.30928E+04  9022   0.914E+02    0.125E+04
RMM:   7    -0.228241152469E+04   -0.81029E+03   -0.17191E+04  9159   0.637E+02    0.209E+03
RMM:   8    -0.219303027891E+04    0.89381E+02   -0.40559E+03  9639   0.326E+02    0.221E+03
RMM:   9    -0.179591929322E+04    0.39711E+03   -0.26714E+03 11362   0.169E+02    0.983E+03
RMM:  10    -0.171179486539E+04    0.84124E+02   -0.46508E+03 13714   0.118E+02    0.101E+04
RMM:  11    -0.145110392563E+04    0.26069E+03   -0.22406E+03 14764   0.735E+01    0.820E+03
RMM:  12    -0.175252258376E+04   -0.30142E+03   -0.30913E+03 14952   0.610E+01    0.775E+03
RMM:  13    -0.177307740560E+04   -0.20555E+02   -0.28149E+03 13987   0.464E+01    0.730E+03
RMM:  14    -0.187389663079E+04   -0.10082E+03   -0.18011E+03 14937   0.423E+01    0.369E+03
RMM:  15    -0.175395455760E+04    0.11994E+03   -0.13969E+03 12859   0.473E+01    0.111E+04
RMM:  16    -0.163346049105E+04    0.12049E+03   -0.37162E+03 14065   0.593E+01    0.631E+03
RMM:  17    -0.160151273865E+04    0.31948E+02   -0.19755E+03 13141   0.524E+01    0.169E+03
RMM:  18    -0.185667700243E+04   -0.25516E+03   -0.69667E+02 11713   0.230E+01    0.145E+04
RMM:  19    -0.223247964938E+04   -0.37580E+03   -0.49419E+03 12914   0.691E+01    0.201E+03
RMM:  20    -0.261040413181E+04   -0.37792E+03   -0.15076E+02 11998   0.229E+01    0.152E+04
RMM:  21    -0.214097652931E+04    0.46943E+03   -0.65295E+03 12918   0.721E+01    0.262E+03
RMM:  22    -0.298733639370E+04   -0.84636E+03   -0.19586E+02 12715   0.237E+01    0.150E+04
RMM:  23    -0.141905130592E+04    0.15683E+04   -0.66406E+03 13026   0.797E+01    0.356E+03
RMM:  24    -0.176964982587E+04   -0.35060E+03   -0.30277E+01 12236   0.135E+01    0.122E+04
RMM:  25    -0.194250884494E+04   -0.17286E+03   -0.63977E+03 14818   0.597E+01    0.335E+03
RMM:  26    -0.246838494221E+04   -0.52588E+03   -0.12736E+03 13550   0.457E+01    0.136E+04
RMM:  27    -0.466415276495E+04   -0.21958E+04   -0.73918E+03 14629   0.118E+02    0.565E+03
RMM:  28    -0.220087129201E+04    0.24633E+04   -0.33186E+03 14419   0.787E+01    0.163E+04
RMM:  29    -0.118108113465E+04    0.10198E+04   -0.11602E+04 12269   0.913E+01    0.998E+03
RMM:  30    -0.133314255797E+04   -0.15206E+03   -0.50457E+03 14518   0.591E+01    0.349E+03
RMM:  31    -0.291571091737E+03    0.10416E+04   -0.40835E+03 12877   0.691E+01    0.461E+03
RMM:  32    -0.802566228724E+03   -0.51100E+03   -0.57876E+03 13395   0.542E+01    0.561E+03
RMM:  33    -0.104931163548E+04   -0.24675E+03   -0.64126E+03 13039   0.551E+01    0.556E+03
RMM:  34    -0.977043005032E+03    0.72269E+02   -0.59615E+03 14637   0.461E+01    0.572E+03
RMM:  35    -0.809272615585E+03    0.16777E+03   -0.55419E+03 14554   0.423E+01    0.480E+03
RMM:  36    -0.152015890107E+03    0.65726E+03   -0.44720E+03 14774   0.348E+01    0.429E+03
RMM:  37    -0.235826559375E+03   -0.83811E+02   -0.41706E+03 13228   0.335E+01    0.371E+03
RMM:  38    -0.594436489036E+03   -0.35861E+03   -0.39387E+03 13194   0.321E+01    0.362E+03
RMM:  39    -0.316227285341E+03    0.27821E+03   -0.44602E+03 14209   0.333E+01    0.392E+03
RMM:  40    -0.315757971508E+03    0.46931E+00   -0.44784E+03 14069   0.305E+01    0.354E+03
RMM:  41    -0.228860552563E+03    0.86897E+02   -0.36973E+03 13454   0.287E+01    0.357E+03
RMM:  42    -0.205983295473E+03    0.22877E+02   -0.39262E+03 14098   0.280E+01    0.351E+03
RMM:  43     0.111460472693E+03    0.31744E+03   -0.32630E+03 14380   0.264E+01    0.341E+03
RMM:  44     0.322181155743E+03    0.21072E+03   -0.23037E+03 14158   0.245E+01    0.336E+03
RMM:  45     0.113612815851E+03   -0.20857E+03   -0.18805E+03 14241   0.196E+01    0.375E+03
RMM:  46     0.412823086362E+03    0.29921E+03   -0.19731E+03 14572   0.205E+01    0.338E+03
RMM:  47     0.891792674649E+03    0.47897E+03   -0.34714E+03 14053   0.811E+01    0.429E+03
RMM:  48     0.102713395174E+04    0.13534E+03   -0.12027E+03 12446   0.589E+01    0.437E+03
RMM:  49     0.113544133078E+04    0.10831E+03   -0.85680E+02 13705   0.343E+01    0.441E+03
RMM:  50     0.103319215233E+04   -0.10225E+03   -0.59694E+02 13531   0.256E+01    0.398E+03
RMM:  51     0.106024359643E+04    0.27051E+02   -0.49507E+02 14182   0.209E+01    0.439E+03
RMM:  52     0.989347717878E+03   -0.70896E+02   -0.57736E+02 14395   0.233E+01    0.403E+03
RMM:  53     0.986856698435E+03   -0.24910E+01   -0.37190E+02 12171   0.221E+01    0.374E+03
RMM:  54     0.103460588513E+04    0.47749E+02   -0.21374E+02 13748   0.160E+01    0.252E+03
RMM:  55     0.101960804984E+04   -0.14998E+02   -0.84764E+01 13476   0.109E+01    0.222E+03
RMM:  56     0.100585455061E+04   -0.13753E+02   -0.12430E+02 13804   0.129E+01    0.167E+03
RMM:  57     0.102375137449E+04    0.17897E+02   -0.36042E+01 13035   0.150E+01    0.176E+03
RMM:  58     0.102971544047E+04    0.59641E+01   -0.36050E+01 13928   0.905E+00    0.190E+03
RMM:  59     0.103397740521E+04    0.42620E+01   -0.18089E+02 14140   0.846E+00    0.181E+03
RMM:  60     0.102965597602E+04   -0.43214E+01   -0.34418E+01 14323   0.503E+00
   2 F= 0.10296560E+04 E0= 0.10296073E+04  d E =0.152948E+04  mag=    14.2388
       N       E                     dE             d eps       ncg     rms          rms(c)
DAV:   1     0.244484344379E+04    0.14109E+04   -0.49508E+04 13050   0.374E+02    0.113E+03
RMM:   2    -0.258247284602E+04   -0.50273E+04   -0.11116E+04 14468   0.468E+02    0.108E+03
RMM:   3    -0.285551804067E+04   -0.27305E+03   -0.10445E+04 13103   0.296E+02    0.163E+03
RMM:   4     0.398858394624E+03    0.32544E+04   -0.38427E+03 12955   0.246E+02    0.101E+03
RMM:   5    -0.646838308558E+04   -0.68672E+04   -0.92297E+03 12509   0.419E+02    0.785E+02
RMM:   6    -0.796370869327E+03    0.56720E+04   -0.19382E+03 10127   0.221E+02    0.433E+02
RMM:   7    -0.130208807761E+04   -0.50572E+03   -0.34208E+03 12360   0.210E+02    0.946E+02
RMM:   8     0.462546613974E+03    0.17646E+04   -0.22487E+03 14610   0.581E+01    0.884E+02
RMM:   9     0.785728019859E+03    0.32318E+03   -0.46336E+02 13585   0.479E+01    0.852E+02
RMM:  10     0.751009794641E+03   -0.34718E+02   -0.48621E+02 14499   0.275E+01    0.822E+02
RMM:  11     0.774527529948E+03    0.23518E+02   -0.13922E+02 13349   0.339E+01    0.817E+02
RMM:  12     0.688081524101E+03   -0.86446E+02   -0.41006E+02 14093   0.308E+01    0.789E+02
RMM:  13     0.741325136742E+03    0.53244E+02   -0.24531E+02 13292   0.308E+01    0.725E+02
RMM:  14     0.872287123799E+03    0.13096E+03   -0.16102E+02 13079   0.363E+01    0.731E+02
RMM:  15     0.777759919199E+03   -0.94527E+02   -0.21921E+02 14382   0.285E+01    0.644E+02
RMM:  16     0.808060817243E+03    0.30301E+02   -0.12010E+02 13966   0.261E+01    0.613E+02
RMM:  17     0.852846600947E+03    0.44786E+02   -0.51943E+01 12925   0.194E+01    0.663E+02
RMM:  18     0.847230697220E+03   -0.56159E+01   -0.35489E+01 14107   0.115E+01    0.623E+02
RMM:  19     0.864241700244E+03    0.17011E+02   -0.68986E+01 13674   0.183E+01    0.555E+02
RMM:  20     0.878181689185E+03    0.13940E+02   -0.44030E+01 12954   0.153E+01    0.499E+02
RMM:  21     0.882488973694E+03    0.43073E+01   -0.51480E+00 14324   0.872E+00    0.467E+02
RMM:  22     0.842341373745E+03   -0.40148E+02   -0.10681E+01 14192   0.795E+00    0.419E+02
RMM:  23     0.861670144849E+03    0.19329E+02   -0.27415E+01 13114   0.132E+01    0.407E+02
RMM:  24     0.883678683394E+03    0.22009E+02   -0.37920E+01 14278   0.118E+01    0.374E+02
RMM:  25     0.891275577651E+03    0.75969E+01   -0.43965E-01 14255   0.102E+01    0.323E+02
RMM:  26     0.895898467246E+03    0.46229E+01   -0.11590E+01 14656   0.897E+00    0.284E+02
RMM:  27     0.900482799569E+03    0.45843E+01   -0.15863E+01 14263   0.890E+00    0.238E+02
RMM:  28     0.899795151489E+03   -0.68765E+00   -0.37332E+00 13247   0.848E+00    0.199E+02
RMM:  29     0.895128658855E+03   -0.46665E+01   -0.21477E+01 14658   0.799E+00    0.159E+02
RMM:  30     0.898388597711E+03    0.32599E+01    0.20727E+00 13639   0.522E+00    0.127E+02
RMM:  31     0.899524004405E+03    0.11354E+01    0.30608E+00 14469   0.463E+00    0.102E+02
RMM:  32     0.898999231486E+03   -0.52477E+00   -0.70413E+00 13713   0.567E+00    0.901E+01
RMM:  33     0.897858507269E+03   -0.11407E+01   -0.69302E+00 13195   0.544E+00    0.583E+01
RMM:  34     0.899244011395E+03    0.13855E+01    0.32407E+00 14348   0.446E+00    0.434E+01
RMM:  35     0.897971475347E+03   -0.12725E+01   -0.16454E+01 13303   0.593E+00    0.351E+01
RMM:  36     0.898827711195E+03    0.85624E+00    0.49109E+00 14456   0.421E+00    0.238E+01
RMM:  37     0.898209378825E+03   -0.61833E+00   -0.80203E+00 13169   0.487E+00    0.168E+01
RMM:  38     0.897721280444E+03   -0.48810E+00   -0.57586E+00 14001   0.453E+00    0.971E+00
RMM:  39     0.898160086048E+03    0.43881E+00    0.56789E+00 14053   0.383E+00    0.154E+01
RMM:  40     0.896648223505E+03   -0.15119E+01   -0.16814E+01 13147   0.480E+00    0.558E+00
RMM:  41     0.898281018290E+03    0.16328E+01    0.87936E+00 13156   0.350E+00    0.127E+01
RMM:  42     0.896565282983E+03   -0.17157E+01   -0.16303E+01 13698   0.475E+00    0.487E+00
RMM:  43     0.897672703500E+03    0.11074E+01    0.56296E+00 14052   0.331E+00    0.101E+01
RMM:  44     0.897558802769E+03   -0.11390E+00   -0.19065E+00 13098   0.351E+00    0.120E+01
RMM:  45     0.897444636328E+03   -0.11417E+00   -0.33087E+00 12832   0.367E+00    0.102E+01
RMM:  46     0.897906770059E+03    0.46213E+00    0.36935E+00 13033   0.360E+00    0.192E+01
RMM:  47     0.896918757029E+03   -0.98801E+00   -0.13185E+01 13024   0.452E+00    0.202E+00
RMM:  48     0.897494352351E+03    0.57560E+00    0.70068E-01 13421   0.359E+00    0.448E+00
RMM:  49     0.897374092802E+03   -0.12026E+00   -0.30888E+00 11810   0.373E+00    0.614E+00
RMM:  50     0.896999857534E+03   -0.37424E+00   -0.74248E+00 12357   0.388E+00    0.229E+00
RMM:  51     0.897799853972E+03    0.80000E+00    0.46888E+00 11125   0.336E+00    0.850E+00
RMM:  52     0.896305496704E+03   -0.14944E+01   -0.17648E+01 12008   0.442E+00    0.874E+00
RMM:  53     0.897662381542E+03    0.13569E+01    0.75705E+00  9997   0.301E+00    0.400E+00
RMM:  54     0.896599095912E+03   -0.10633E+01   -0.12225E+01  9545   0.420E+00    0.711E+00
RMM:  55     0.897302412782E+03    0.70332E+00    0.26807E+00 10621   0.344E+00    0.555E-01
RMM:  56     0.897044976385E+03   -0.25744E+00   -0.49780E+00  9152   0.383E+00    0.214E+00
RMM:  57     0.896658772728E+03   -0.38620E+00   -0.76553E+00  9195   0.395E+00    0.775E+00
RMM:  58     0.897650839736E+03    0.99207E+00    0.65562E+00  8245   0.321E+00    0.398E+00
RMM:  59     0.896113296467E+03   -0.15375E+01   -0.17503E+01  8158   0.427E+00    0.130E+01
RMM:  60     0.897776839749E+03    0.16635E+01    0.10778E+01  9150   0.284E+00
   3 F= 0.89777684E+03 E0= 0.89787537E+03  d E =0.139760E+04  mag=    -0.0053
       N       E                     dE             d eps       ncg     rms          rms(c)
DAV:   1     0.944678145350E+03    0.48565E+02   -0.27569E+03 11778   0.796E+01    0.461E+01
RMM:   2     0.798518501705E+03   -0.14616E+03   -0.74889E+02 13231   0.517E+01    0.562E+01
RMM:   3     0.636442556387E+03   -0.16208E+03   -0.12820E+02 11389   0.434E+01    0.120E+02
RMM:   4     0.817133241845E+03    0.18069E+03   -0.78822E+01 13608   0.147E+01    0.356E+01
RMM:   5     0.867169146056E+03    0.50036E+02   -0.28315E+01 12644   0.142E+01    0.327E+01
RMM:   6     0.865862123182E+03   -0.13070E+01   -0.13469E+01 14161   0.513E+00    0.307E+01
RMM:   7     0.864886469441E+03   -0.97565E+00   -0.59626E+00 12578   0.529E+00    0.255E+01
RMM:   8     0.867756593399E+03    0.28701E+01   -0.31523E+00 12619   0.494E+00    0.196E+01
RMM:   9     0.869590939466E+03    0.18343E+01   -0.66470E-01 11272   0.285E+00    0.141E+01
RMM:  10     0.869639112296E+03    0.48173E-01   -0.66360E-01 13919   0.957E-01    0.141E+01
RMM:  11     0.869670549318E+03    0.31437E-01   -0.15487E-01 12676   0.103E+00    0.116E+01
RMM:  12     0.869681145868E+03    0.10597E-01   -0.87085E-02 13562   0.486E-01    0.945E+00
RMM:  13     0.869681293314E+03    0.14745E-03   -0.42463E-02 14227   0.260E-01    0.790E+00
RMM:  14     0.869691040962E+03    0.97476E-02   -0.16581E-02 13092   0.181E-01    0.708E+00
RMM:  15     0.869721935957E+03    0.30895E-01   -0.11562E-02 12930   0.198E-01    0.450E+00
RMM:  16     0.869730356156E+03    0.84202E-02   -0.11904E-02 12982   0.220E-01    0.278E+00
RMM:  17     0.869733795131E+03    0.34390E-02   -0.53578E-03 12650   0.153E-01    0.209E+00
RMM:  18     0.869736873795E+03    0.30787E-02   -0.44246E-03 13274   0.129E-01    0.594E-01
RMM:  19     0.869737618604E+03    0.74481E-03   -0.18356E-03 11641   0.103E-01    0.453E-01
RMM:  20     0.869737577474E+03   -0.41130E-04   -0.65672E-04 10016   0.676E-02    0.262E-01
RMM:  21     0.869737505152E+03   -0.72322E-04   -0.37654E-04  8915   0.483E-02    0.106E-01
RMM:  22     0.869737284600E+03   -0.22055E-03   -0.16740E-04  8234   0.476E-02    0.394E-02
RMM:  23     0.869736968279E+03   -0.31632E-03   -0.11676E-04  7607   0.402E-02    0.328E-02
RMM:  24     0.869736558590E+03   -0.40969E-03   -0.90805E-05  7507   0.426E-02    0.104E-01
RMM:  25     0.869736413441E+03   -0.14515E-03   -0.79094E-05  7308   0.386E-02    0.719E-02
RMM:  26     0.869736395845E+03   -0.17596E-04   -0.37359E-05  7064   0.367E-02    0.199E-02
RMM:  27     0.869736261314E+03   -0.13453E-03   -0.29915E-05  6920   0.347E-02    0.230E-02
RMM:  28     0.869736149768E+03   -0.11155E-03   -0.26829E-05  6919   0.346E-02    0.117E-02
RMM:  29     0.869736111673E+03   -0.38095E-04   -0.18228E-05  6887   0.346E-02    0.189E-02
RMM:  30     0.869736092609E+03   -0.19064E-04   -0.12809E-05  6757   0.324E-02    0.944E-03
RMM:  31     0.869736047529E+03   -0.45081E-04   -0.63139E-06  6684   0.315E-02    0.213E-02
RMM:  32     0.869736014513E+03   -0.33016E-04   -0.51449E-06  6732   0.322E-02    0.107E-02
RMM:  33     0.869736000232E+03   -0.14281E-04   -0.60307E-06  6704   0.319E-02    0.130E-02
RMM:  34     0.869735994673E+03   -0.55588E-05   -0.49559E-06  6648   0.307E-02
   4 F= 0.86973599E+03 E0= 0.86980936E+03  d E =0.136956E+04  mag=    -0.0033
       N       E                     dE             d eps       ncg     rms          rms(c)
DAV:   1     0.898952284898E+03    0.29216E+02   -0.41097E+03 11148   0.103E+02    0.652E+01
RMM:   2     0.423104351276E+03   -0.47585E+03   -0.14076E+03 13493   0.671E+01    0.243E+02
RMM:   3     0.741216365955E+03    0.31811E+03   -0.29647E+02 10516   0.831E+01    0.558E+01
RMM:   4     0.429320799631E+03   -0.31190E+03   -0.13685E+02 13719   0.230E+01    0.172E+02
RMM:   5     0.781945136020E+03    0.35262E+03   -0.43678E+01 12232   0.161E+01    0.232E+01
RMM:   6     0.764704917559E+03   -0.17240E+02   -0.29721E+01 12744   0.123E+01    0.254E+01
RMM:   7     0.784441685407E+03    0.19737E+02   -0.11137E+01 12699   0.806E+00    0.282E+01
RMM:   8     0.785929544207E+03    0.14879E+01   -0.46844E+00 13167   0.432E+00    0.224E+01
RMM:   9     0.786299784432E+03    0.37024E+00   -0.12616E+00 12919   0.231E+00    0.190E+01
RMM:  10     0.786336151016E+03    0.36367E-01   -0.77736E-01 14198   0.115E+00    0.207E+01
RMM:  11     0.786364904220E+03    0.28753E-01   -0.28907E-01 13700   0.848E-01    0.193E+01
RMM:  12     0.786385037666E+03    0.20133E-01   -0.13001E-01 13362   0.547E-01    0.194E+01
RMM:  13     0.786384879678E+03   -0.15799E-03   -0.58608E-02 13467   0.295E-01    0.191E+01
RMM:  14     0.786386281703E+03    0.14020E-02   -0.23541E-02 12561   0.201E-01    0.185E+01
RMM:  15     0.786389085931E+03    0.28042E-02   -0.12058E-02 13011   0.127E-01    0.176E+01
RMM:  16     0.786389372737E+03    0.28681E-03   -0.54914E-03  9710   0.851E-02    0.172E+01
RMM:  17     0.786391771346E+03    0.23986E-02   -0.24414E-03  9703   0.714E-02    0.162E+01
RMM:  18     0.786396090503E+03    0.43192E-02   -0.18385E-03 11396   0.746E-02    0.144E+01
RMM:  19     0.786404680034E+03    0.85895E-02   -0.27867E-03 13051   0.999E-02    0.114E+01
RMM:  20     0.786411874147E+03    0.71941E-02   -0.39319E-03 13020   0.119E-01    0.786E+00
RMM:  21     0.786416175466E+03    0.43013E-02   -0.44411E-03 13273   0.126E-01    0.430E+00
RMM:  22     0.786417162119E+03    0.98665E-03   -0.28021E-03 12391   0.102E-01    0.237E+00
RMM:  23     0.786417074582E+03   -0.87537E-04   -0.14953E-03 10707   0.759E-02    0.123E+00
RMM:  24     0.786416547521E+03   -0.52706E-03   -0.68690E-04  8701   0.539E-02    0.923E-01
RMM:  25     0.786416286967E+03   -0.26055E-03   -0.30030E-04  7897   0.486E-02    0.908E-01
RMM:  26     0.786415498792E+03   -0.78817E-03   -0.25074E-04  7396   0.448E-02    0.656E-01
RMM:  27     0.786414764424E+03   -0.73437E-03   -0.20929E-04  7480   0.429E-02    0.435E-01
RMM:  28     0.786414845915E+03    0.81491E-04   -0.22149E-04  7627   0.394E-02    0.274E-01
RMM:  29     0.786414869441E+03    0.23526E-04   -0.14496E-04  7597   0.438E-02    0.172E-01
RMM:  30     0.786414956315E+03    0.86874E-04   -0.11044E-04  7385   0.375E-02    0.105E-01
RMM:  31     0.786415274279E+03    0.31796E-03   -0.11127E-04  7376   0.391E-02    0.814E-02
RMM:  32     0.786415264143E+03   -0.10135E-04   -0.40514E-05  6886   0.369E-02    0.633E-02
RMM:  33     0.786415169812E+03   -0.94331E-04   -0.23960E-05  6840   0.341E-02    0.859E-02
RMM:  34     0.786414992077E+03   -0.17773E-03   -0.17570E-05  6804   0.332E-02    0.879E-02
RMM:  35     0.786414651219E+03   -0.34086E-03   -0.19380E-05  6744   0.317E-02    0.920E-02
RMM:  36     0.786414540617E+03   -0.11060E-03   -0.94534E-06  6701   0.320E-02    0.711E-02
RMM:  37     0.786414309386E+03   -0.23123E-03   -0.98708E-06  6695   0.310E-02    0.536E-02
RMM:  38     0.786414032125E+03   -0.27726E-03   -0.83218E-06  6726   0.312E-02    0.155E-02
RMM:  39     0.786413925607E+03   -0.10652E-03   -0.83200E-06  6682   0.313E-02    0.123E-02
RMM:  40     0.786413849041E+03   -0.76566E-04   -0.42764E-06  6660   0.304E-02    0.127E-02
RMM:  41     0.786413784727E+03   -0.64315E-04   -0.23953E-06  6607   0.309E-02    0.793E-03
RMM:  42     0.786413716356E+03   -0.68371E-04   -0.34055E-06  6702   0.311E-02    0.121E-02
RMM:  43     0.786413676773E+03   -0.39583E-04   -0.18776E-06  6584   0.298E-02    0.710E-03
RMM:  44     0.786413629090E+03   -0.47683E-04   -0.18140E-06  6600   0.301E-02    0.674E-03
RMM:  45     0.786413589736E+03   -0.39353E-04   -0.22639E-06  6610   0.304E-02    0.478E-03
RMM:  46     0.786413569317E+03   -0.20419E-04   -0.49691E-07  6575   0.305E-02    0.549E-03
RMM:  47     0.786413560828E+03   -0.84888E-05   -0.26883E-06  6623   0.316E-02
   5 F= 0.78641356E+03 E0= 0.78646542E+03  d E =-.833224E+02  mag=     0.0007
       N       E                     dE             d eps       ncg     rms          rms(c)
DAV:   1     0.965955530154E+03    0.17954E+03   -0.83147E+03 11448   0.148E+02    0.110E+02
RMM:   2    -0.251940506612E+03   -0.12179E+04   -0.31144E+03 13705   0.104E+02    0.275E+02
RMM:   3     0.546006394746E+03    0.79795E+03   -0.41051E+02 11458   0.768E+01    0.129E+02
RMM:   4     0.667035969524E+03    0.12103E+03   -0.19587E+02 13598   0.260E+01    0.753E+01
RMM:   5     0.686696879596E+03    0.19661E+02   -0.77878E+01 12401   0.308E+01    0.540E+01
RMM:   6     0.668885728260E+03   -0.17811E+02   -0.86574E+01 12610   0.181E+01    0.582E+01
RMM:   7     0.729041246046E+03    0.60156E+02   -0.13521E+01 11796   0.105E+01    0.494E+01
RMM:   8     0.733383913035E+03    0.43427E+01   -0.86010E+00 13340   0.455E+00    0.356E+01
RMM:   9     0.735763203272E+03    0.23793E+01   -0.29354E+00 13651   0.396E+00    0.364E+01
RMM:  10     0.735486522542E+03   -0.27668E+00   -0.12253E+00 13631   0.186E+00    0.339E+01
RMM:  11     0.735922721167E+03    0.43620E+00   -0.55543E-01 13610   0.112E+00    0.271E+01
RMM:  12     0.735837247944E+03   -0.85473E-01   -0.17855E-01 14102   0.678E-01    0.273E+01
RMM:  13     0.735994830902E+03    0.15758E+00   -0.11238E-01 13575   0.476E-01    0.232E+01
RMM:  14     0.736053473523E+03    0.58643E-01   -0.54792E-02 13308   0.344E-01    0.213E+01
RMM:  15     0.736099224176E+03    0.45751E-01   -0.27292E-02 13577   0.277E-01    0.206E+01
RMM:  16     0.736130869299E+03    0.31645E-01   -0.15966E-02 14097   0.218E-01    0.198E+01
RMM:  17     0.736240680377E+03    0.10981E+00   -0.41437E-02 13719   0.311E-01    0.165E+01
RMM:  18     0.736387720067E+03    0.14704E+00   -0.11613E-01 13617   0.778E-01    0.104E+01
RMM:  19     0.736421999755E+03    0.34280E-01   -0.72229E-02 13662   0.507E-01    0.819E+00
RMM:  20     0.736423302839E+03    0.13031E-02   -0.14095E-02 11600   0.323E-01    0.819E+00
RMM:  21     0.736422865900E+03   -0.43694E-03   -0.61875E-03 11324   0.139E-01    0.816E+00
RMM:  22     0.736425940195E+03    0.30743E-02   -0.27247E-03 10952   0.882E-02    0.812E+00
RMM:  23     0.736424009212E+03   -0.19310E-02   -0.11998E-03 10809   0.795E-02    0.781E+00
RMM:  24     0.736428785124E+03    0.47759E-02   -0.43568E-03 13158   0.140E-01    0.674E+00
RMM:  25     0.736412736264E+03   -0.16049E-01   -0.24477E-02 13774   0.322E-01    0.509E+00
RMM:  26     0.736378270679E+03   -0.34466E-01   -0.42681E-02 13921   0.365E-01    0.475E+00
RMM:  27     0.736388951820E+03    0.10681E-01   -0.10285E-02 11829   0.301E-01    0.446E+00
RMM:  28     0.736454295409E+03    0.65344E-01   -0.34027E-02 12781   0.326E-01    0.278E+00
RMM:  29     0.736471926323E+03    0.17631E-01   -0.25638E-02 13110   0.459E-01    0.212E+00
RMM:  30     0.736481953371E+03    0.10027E-01   -0.19945E-02 13586   0.268E-01    0.159E+00
RMM:  31     0.736487982791E+03    0.60294E-02   -0.12544E-02 14313   0.188E-01    0.116E+00
RMM:  32     0.736492787947E+03    0.48052E-02   -0.10061E-02 13831   0.194E-01    0.768E-01
RMM:  33     0.736494878618E+03    0.20907E-02   -0.19418E-02 14230   0.228E-01    0.505E-01
RMM:  34     0.736492943383E+03   -0.19352E-02   -0.14084E-02 13910   0.233E-01    0.768E-01
RMM:  35     0.736494082335E+03    0.11390E-02   -0.25113E-03  9831   0.136E-01    0.557E-01
RMM:  36     0.736495419405E+03    0.13371E-02   -0.26871E-03 12470   0.104E-01    0.252E-01
RMM:  37     0.736495394013E+03   -0.25392E-04   -0.23294E-03 12563   0.122E-01    0.122E-01
RMM:  38     0.736495111535E+03   -0.28248E-03   -0.86306E-04 10041   0.726E-02    0.137E-01
RMM:  39     0.736494869154E+03   -0.24238E-03   -0.38241E-04  8887   0.502E-02    0.179E-01
RMM:  40     0.736494706741E+03   -0.16241E-03   -0.13348E-04  8399   0.548E-02    0.135E-01
RMM:  41     0.736494272878E+03   -0.43386E-03   -0.29119E-04  8918   0.423E-02    0.123E-01
RMM:  42     0.736493914418E+03   -0.35846E-03   -0.31769E-04  9563   0.556E-02    0.145E-01
RMM:  43     0.736493667582E+03   -0.24684E-03   -0.28758E-04  9454   0.499E-02    0.210E-01
RMM:  44     0.736493254636E+03   -0.41295E-03   -0.74910E-05  7719   0.475E-02    0.145E-01
RMM:  45     0.736492871241E+03   -0.38339E-03   -0.15239E-04  8139   0.367E-02    0.864E-02
RMM:  46     0.736492657654E+03   -0.21359E-03   -0.12600E-04  8064   0.478E-02    0.627E-02
RMM:  47     0.736492546814E+03   -0.11084E-03   -0.54798E-05  7420   0.421E-02    0.540E-02
RMM:  48     0.736492039162E+03   -0.50765E-03   -0.18985E-05  6910   0.373E-02    0.322E-02
RMM:  49     0.736491619268E+03   -0.41989E-03   -0.17612E-05  6680   0.328E-02    0.413E-02
RMM:  50     0.736491524341E+03   -0.94926E-04   -0.11341E-05  6806   0.351E-02    0.218E-02
RMM:  51     0.736491339727E+03   -0.18461E-03   -0.10867E-05  6668   0.328E-02    0.176E-02
RMM:  52     0.736491230996E+03   -0.10873E-03   -0.60443E-06  6689   0.319E-02    0.211E-02
RMM:  53     0.736491136171E+03   -0.94825E-04   -0.52723E-06  6539   0.295E-02    0.196E-02
RMM:  54     0.736491097503E+03   -0.38668E-04   -0.70526E-06  6668   0.321E-02    0.210E-02
RMM:  55     0.736491002253E+03   -0.95250E-04   -0.13583E-05  6735   0.325E-02    0.252E-02
RMM:  56     0.736490926607E+03   -0.75647E-04   -0.46995E-06  6633   0.314E-02    0.123E-02
RMM:  57     0.736490907117E+03   -0.19490E-04   -0.26430E-06  6523   0.294E-02    0.167E-02
RMM:  58     0.736490891293E+03   -0.15823E-04   -0.82318E-07  6395   0.282E-02    0.874E-03
RMM:  59     0.736490853572E+03   -0.37721E-04   -0.12634E-06  6432   0.298E-02    0.111E-02
RMM:  60     0.736490835605E+03   -0.17967E-04   -0.32721E-06  6523   0.313E-02
   6 F= 0.73649084E+03 E0= 0.73653037E+03  d E =-.133245E+03  mag=    -0.0014
       N       E                     dE             d eps       ncg     rms          rms(c)
DAV:   1     0.751605805806E+03    0.15115E+02   -0.95309E+02 11254   0.436E+01    0.238E+01
RMM:   2     0.727871560113E+03   -0.23734E+02   -0.16551E+02 13101   0.253E+01    0.418E+01
RMM:   3     0.732019648101E+03    0.41481E+01   -0.75744E+01 11421   0.334E+01    0.174E+01
RMM:   4     0.659759714687E+03   -0.72260E+02   -0.31636E+01 13115   0.135E+01    0.495E+01
RMM:   5     0.726694651047E+03    0.66935E+02   -0.10920E+01 12516   0.770E+00    0.121E+01
RMM:   6     0.729782114140E+03    0.30875E+01   -0.61530E+00 13721   0.444E+00    0.122E+01
RMM:   7     0.731996525462E+03    0.22144E+01   -0.20950E+00 12767   0.287E+00    0.716E+00
RMM:   8     0.732085203069E+03    0.88678E-01   -0.69234E-01 13430   0.163E+00    0.614E+00
RMM:   9     0.732080458042E+03   -0.47450E-02   -0.25210E-01 12490   0.971E-01    0.514E+00
RMM:  10     0.732109474187E+03    0.29016E-01   -0.10948E-01 13561   0.566E-01    0.705E+00
RMM:  11     0.732123022646E+03    0.13548E-01   -0.43240E-02 12771   0.369E-01    0.566E+00
RMM:  12     0.732124971886E+03    0.19492E-02   -0.22672E-02 13993   0.186E-01    0.522E+00
RMM:  13     0.732123945944E+03   -0.10259E-02   -0.10018E-02 11850   0.153E-01    0.509E+00
RMM:  14     0.732125365138E+03    0.14192E-02   -0.41806E-03 13170   0.101E-01    0.415E+00
RMM:  15     0.732125554889E+03    0.18975E-03   -0.25345E-03 10568   0.850E-02    0.380E+00
RMM:  16     0.732125847660E+03    0.29277E-03   -0.88729E-04  8874   0.527E-02    0.368E+00
RMM:  17     0.732126167407E+03    0.31975E-03   -0.52197E-04  9017   0.579E-02    0.334E+00
RMM:  18     0.732127175053E+03    0.10076E-02   -0.73910E-04 10976   0.535E-02    0.252E+00
RMM:  19     0.732128246974E+03    0.10719E-02   -0.53029E-04 10533   0.739E-02    0.195E+00
RMM:  20     0.732129822080E+03    0.15751E-02   -0.12883E-03 12675   0.889E-02    0.985E-01
RMM:  21     0.732129987245E+03    0.16517E-03   -0.83597E-04 10933   0.663E-02    0.421E-01
RMM:  22     0.732129962910E+03   -0.24335E-04   -0.21779E-04  7898   0.718E-02    0.434E-01
RMM:  23     0.732129946722E+03   -0.16189E-04   -0.66256E-05  7420   0.442E-02    0.370E-01
RMM:  24     0.732130005062E+03    0.58340E-04   -0.52252E-05  7378   0.407E-02    0.267E-01
RMM:  25     0.732130053293E+03    0.48231E-04   -0.26429E-05  6846   0.369E-02    0.186E-01
RMM:  26     0.732130063355E+03    0.10062E-04   -0.34897E-05  7245   0.395E-02    0.104E-01
RMM:  27     0.732130061719E+03   -0.16361E-05   -0.25958E-05  6942   0.366E-02
   7 F= 0.73213006E+03 E0= 0.73214587E+03  d E =-.137606E+03  mag=    -0.0059
       N       E                     dE             d eps       ncg     rms          rms(c)
DAV:   1     0.709461640205E+03   -0.22668E+02   -0.29420E+02 12498   0.236E+01    0.123E+01
RMM:   2     0.703148991742E+03   -0.63126E+01   -0.34021E+01 12818   0.147E+01    0.808E+00
RMM:   3     0.697794427166E+03   -0.53546E+01   -0.14594E+01 12278   0.116E+01    0.157E+01
RMM:   4     0.690676693038E+03   -0.71177E+01   -0.57657E+00 13075   0.648E+00    0.269E+01
RMM:   5     0.705243595902E+03    0.14567E+02   -0.22155E+00 12686   0.367E+00    0.956E+00
RMM:   6     0.706102167447E+03    0.85857E+00   -0.11544E+00 13578   0.221E+00    0.338E+00
RMM:   7     0.706282125378E+03    0.17996E+00   -0.52938E-01 14041   0.115E+00    0.371E+00
RMM:   8     0.706243018643E+03   -0.39107E-01   -0.20539E-01 13641   0.756E-01    0.388E+00
RMM:   9     0.706320294661E+03    0.77276E-01   -0.10330E-01 13566   0.626E-01    0.862E-01
RMM:  10     0.706211817640E+03   -0.10848E+00   -0.65579E-02 13515   0.465E-01    0.372E+00
RMM:  11     0.706321649809E+03    0.10983E+00   -0.20009E-02 11699   0.386E-01    0.993E-01
RMM:  12     0.706316915582E+03   -0.47342E-02   -0.13400E-02 13694   0.173E-01    0.129E+00
RMM:  13     0.706324610516E+03    0.76949E-02   -0.75743E-03 13739   0.148E-01    0.847E-01
RMM:  14     0.706327246536E+03    0.26360E-02   -0.46985E-03 12800   0.101E-01    0.651E-01
RMM:  15     0.706329004678E+03    0.17581E-02   -0.20070E-03 11327   0.912E-02    0.440E-01
RMM:  16     0.706330080001E+03    0.10753E-02   -0.19523E-03 12293   0.719E-02    0.206E-01
RMM:  17     0.706330203059E+03    0.12306E-03   -0.89775E-04 10158   0.558E-02    0.119E-01
RMM:  18     0.706330220908E+03    0.17849E-04   -0.53567E-04  8501   0.472E-02    0.428E-02
RMM:  19     0.706330182537E+03   -0.38371E-04   -0.27658E-04  8054   0.481E-02    0.388E-02
RMM:  20     0.706330178785E+03   -0.37516E-05   -0.12240E-04  7417   0.436E-02    0.347E-02
RMM:  21     0.706330160282E+03   -0.18503E-04   -0.68994E-05  7252   0.392E-02    0.502E-02
RMM:  22     0.706330173482E+03    0.13199E-04   -0.27495E-05  6822   0.372E-02    0.159E-02
RMM:  23     0.706330169800E+03   -0.36814E-05   -0.17854E-05  6863   0.353E-02
   8 F= 0.70633017E+03 E0= 0.70636616E+03  d E =-.257999E+02  mag=    -0.0014
       N       E                     dE             d eps       ncg     rms          rms(c)
DAV:   1     0.688869637775E+03   -0.17461E+02   -0.15147E+03 12686   0.555E+01    0.340E+01
RMM:   2     0.640093226282E+03   -0.48776E+02   -0.20607E+02 12837   0.380E+01    0.295E+01
RMM:   3     0.574852560678E+03   -0.65241E+02   -0.67702E+01 11448   0.291E+01    0.764E+01
RMM:   4     0.612639951968E+03    0.37787E+02   -0.34123E+01 13529   0.113E+01    0.540E+01
RMM:   5     0.610357593535E+03   -0.22824E+01   -0.15050E+01 11444   0.140E+01    0.419E+01
RMM:   6     0.668417191459E+03    0.58060E+02   -0.81470E+00 14032   0.577E+00    0.965E+00
RMM:   7     0.671162056756E+03    0.27449E+01   -0.34559E+00 13303   0.381E+00    0.108E+01
RMM:   8     0.671196937702E+03    0.34881E-01   -0.15775E+00 13216   0.191E+00    0.795E+00
RMM:   9     0.671244119322E+03    0.47182E-01   -0.89991E-01 14122   0.130E+00    0.958E+00
RMM:  10     0.671285156478E+03    0.41037E-01   -0.60006E-01 13752   0.112E+00    0.672E+00
RMM:  11     0.671316491247E+03    0.31335E-01   -0.18644E-01 13869   0.887E-01    0.398E+00
RMM:  12     0.671283225708E+03   -0.33266E-01   -0.88675E-02 14114   0.454E-01    0.346E+00
RMM:  13     0.671280154126E+03   -0.30716E-02   -0.31503E-02 12667   0.343E-01    0.330E+00
RMM:  14     0.671313798450E+03    0.33644E-01   -0.16430E-02 13887   0.193E-01    0.244E+00
RMM:  15     0.671337945426E+03    0.24147E-01   -0.10148E-02 13705   0.165E-01    0.189E+00
RMM:  16     0.671356728077E+03    0.18783E-01   -0.14111E-02 13701   0.229E-01    0.143E+00
RMM:  17     0.671371798234E+03    0.15070E-01   -0.16695E-02 14096   0.235E-01    0.851E-01
RMM:  18     0.671373608544E+03    0.18103E-02   -0.65076E-03 13102   0.144E-01    0.729E-01
RMM:  19     0.671376577661E+03    0.29691E-02   -0.59542E-03 13211   0.128E-01    0.448E-01
RMM:  20     0.671377629957E+03    0.10523E-02   -0.43548E-03 13137   0.149E-01    0.141E-01
RMM:  21     0.671377494593E+03   -0.13536E-03   -0.17289E-03 10296   0.735E-02    0.124E-01
RMM:  22     0.671377447273E+03   -0.47320E-04   -0.61915E-04  8461   0.575E-02    0.122E-01
RMM:  23     0.671377407362E+03   -0.39911E-04   -0.31250E-04  7721   0.510E-02    0.127E-01
RMM:  24     0.671377283658E+03   -0.12370E-03   -0.11244E-04  7208   0.395E-02    0.138E-01
RMM:  25     0.671377329404E+03    0.45746E-04   -0.52209E-05  7005   0.394E-02    0.932E-02
RMM:  26     0.671377358487E+03    0.29082E-04   -0.64042E-05  7318   0.406E-02    0.533E-02
RMM:  27     0.671377332861E+03   -0.25626E-04   -0.50792E-05  7467   0.452E-02    0.479E-02
RMM:  28     0.671377311171E+03   -0.21690E-04   -0.35620E-05  7146   0.363E-02    0.456E-02
RMM:  29     0.671377281591E+03   -0.29580E-04   -0.15951E-05  6776   0.377E-02    0.433E-02
RMM:  30     0.671377260686E+03   -0.20904E-04   -0.12883E-05  6906   0.365E-02    0.387E-02
RMM:  31     0.671377250108E+03   -0.10579E-04   -0.92865E-06  6716   0.346E-02    0.336E-02
RMM:  32     0.671377248781E+03   -0.13269E-05   -0.75775E-06  6752   0.335E-02
   9 F= 0.67137725E+03 E0= 0.67144725E+03  d E =-.607528E+02  mag=    -0.0006
       N       E                     dE             d eps       ncg     rms          rms(c)
DAV:   1     0.798851940087E+03    0.12747E+03   -0.59386E+03 12956   0.120E+02    0.908E+01
RMM:   2     0.634485377451E+03   -0.16437E+03   -0.11017E+03 12725   0.814E+01    0.508E+01
RMM:   3    -0.606129751814E+03   -0.12406E+04   -0.53892E+02 11960   0.661E+01    0.402E+02
RMM:   4    -0.978671468904E+03   -0.37254E+03   -0.58316E+02 13603   0.272E+01    0.710E+02
RMM:   5     0.686214991489E+03    0.16649E+04   -0.95759E+01 10139   0.550E+01    0.321E+01
RMM:   6     0.691359027262E+03    0.51440E+01   -0.65758E+01 13645   0.140E+01    0.180E+01
RMM:   7     0.682324537137E+03   -0.90345E+01   -0.35213E+01 14066   0.855E+00    0.208E+01
RMM:   8     0.693272696590E+03    0.10948E+02   -0.11874E+01 12840   0.731E+00    0.105E+01
RMM:   9     0.694547320187E+03    0.12746E+01   -0.53008E+00 13356   0.440E+00    0.802E+00
RMM:  10     0.694661379025E+03    0.11406E+00   -0.26454E+00 13992   0.218E+00    0.535E+00
RMM:  11     0.694761455609E+03    0.10008E+00   -0.95081E-01 14293   0.159E+00    0.523E+00
RMM:  12     0.694901075177E+03    0.13962E+00   -0.48748E-01 13902   0.931E-01    0.644E+00
RMM:  13     0.694880227238E+03   -0.20848E-01   -0.23855E-01 14629   0.527E-01    0.632E+00
RMM:  14     0.694930257156E+03    0.50030E-01   -0.12746E-01 14227   0.468E-01    0.750E+00
RMM:  15     0.694945561300E+03    0.15304E-01   -0.61513E-02 13802   0.301E-01    0.751E+00
RMM:  16     0.694953680008E+03    0.81187E-02   -0.41481E-02 13420   0.197E-01    0.751E+00
RMM:  17     0.694956034908E+03    0.23549E-02   -0.15987E-02 10560   0.144E-01    0.733E+00
RMM:  18     0.694959835978E+03    0.38011E-02   -0.10040E-02 11066   0.108E-01    0.691E+00
RMM:  19     0.694961318049E+03    0.14821E-02   -0.63348E-03 11774   0.862E-02    0.645E+00
RMM:  20     0.694962169592E+03    0.85154E-03   -0.41240E-03 11255   0.781E-02    0.570E+00
RMM:  21     0.694961656642E+03   -0.51295E-03   -0.28736E-03 11713   0.795E-02    0.457E+00
RMM:  22     0.694960993763E+03   -0.66288E-03   -0.34988E-03 11334   0.736E-02    0.372E+00
RMM:  23     0.694960168254E+03   -0.82551E-03   -0.14015E-03 10694   0.574E-02    0.318E+00
RMM:  24     0.694960061741E+03   -0.10651E-03   -0.67649E-04  9003   0.538E-02    0.273E+00
RMM:  25     0.694959820804E+03   -0.24094E-03   -0.39508E-04  8872   0.457E-02    0.238E+00
RMM:  26     0.694959860995E+03    0.40191E-04   -0.22723E-04  8125   0.442E-02    0.209E+00
RMM:  27     0.694959833952E+03   -0.27043E-04   -0.58140E-04 10182   0.464E-02    0.152E+00
RMM:  28     0.694960001766E+03    0.16781E-03   -0.46391E-04  9752   0.524E-02    0.948E-01
RMM:  29     0.694960003516E+03    0.17502E-05   -0.26796E-04  8421   0.438E-02    0.736E-01
RMM:  30     0.694960060795E+03    0.57279E-04   -0.89495E-05  7516   0.427E-02    0.504E-01
RMM:  31     0.694960098728E+03    0.37933E-04   -0.96439E-05  7796   0.409E-02    0.170E-01
RMM:  32     0.694960067244E+03   -0.31484E-04   -0.59429E-05  7502   0.426E-02    0.815E-02
RMM:  33     0.694960037449E+03   -0.29795E-04   -0.39338E-05  7301   0.384E-02    0.580E-02
RMM:  34     0.694959987545E+03   -0.49905E-04   -0.20178E-05  6925   0.370E-02    0.406E-02
RMM:  35     0.694959976396E+03   -0.11149E-04   -0.14948E-05  6826   0.356E-02    0.150E-02
RMM:  36     0.694959932686E+03   -0.43709E-04   -0.94740E-06  6801   0.340E-02    0.226E-02
RMM:  37     0.694959905178E+03   -0.27508E-04   -0.74853E-06  6679   0.326E-02    0.963E-03
RMM:  38     0.694959883115E+03   -0.22063E-04   -0.56921E-06  6696   0.321E-02    0.131E-02
RMM:  39     0.694959873099E+03   -0.10016E-04   -0.55199E-06  6672   0.322E-02    0.447E-03
RMM:  40     0.694959859064E+03   -0.14035E-04   -0.45212E-06  6713   0.316E-02    0.635E-03
RMM:  41     0.694959846656E+03   -0.12408E-04   -0.39526E-06  6639   0.313E-02    0.671E-03
RMM:  42     0.694959839819E+03   -0.68375E-05   -0.23193E-06  6657   0.308E-02
  10 F= 0.69495984E+03 E0= 0.69501817E+03  d E =-.371702E+02  mag=    -0.0023
       N       E                     dE             d eps       ncg     rms          rms(c)
DAV:   1     0.711057985184E+03    0.16098E+02   -0.27779E+03 11832   0.793E+01    0.244E+01
RMM:   2     0.676215705201E+03   -0.34842E+02   -0.39300E+02 12776   0.504E+01    0.713E+01
RMM:   3     0.656041727512E+03   -0.20174E+02   -0.16399E+02 12621   0.406E+01    0.278E+01
RMM:   4     0.596863010833E+03   -0.59179E+02   -0.64592E+01 12551   0.266E+01    0.509E+01
RMM:   5     0.663760408931E+03    0.66897E+02   -0.27873E+01 13287   0.975E+00    0.308E+01
RMM:   6     0.664335903695E+03    0.57549E+00   -0.11551E+01 13639   0.488E+00    0.279E+01
RMM:   7     0.657754070721E+03   -0.65818E+01   -0.75260E+00 13699   0.392E+00    0.297E+01
RMM:   8     0.663977167119E+03    0.62231E+01   -0.39827E+00 13202   0.353E+00    0.184E+01
RMM:   9     0.664052618346E+03    0.75451E-01   -0.32516E+00 13447   0.367E+00    0.107E+01
RMM:  10     0.665807657911E+03    0.17550E+01   -0.15027E+00 12893   0.307E+00    0.114E+01
RMM:  11     0.666091773120E+03    0.28412E+00   -0.81118E-01 13987   0.154E+00    0.108E+01
RMM:  12     0.666154727546E+03    0.62954E-01   -0.39333E-01 13997   0.118E+00    0.121E+01
RMM:  13     0.666156884931E+03    0.21574E-02   -0.91268E-02 11798   0.829E-01    0.117E+01
RMM:  14     0.666169959416E+03    0.13074E-01   -0.49327E-02 14433   0.312E-01    0.133E+01
RMM:  15     0.666164974932E+03   -0.49845E-02   -0.18641E-02 13225   0.201E-01    0.139E+01
RMM:  16     0.666163063746E+03   -0.19112E-02   -0.72735E-03 12201   0.107E-01    0.143E+01
RMM:  17     0.666158154236E+03   -0.49095E-02   -0.28689E-03 11100   0.110E-01    0.152E+01
RMM:  18     0.666159539172E+03    0.13849E-02   -0.19458E-03 11049   0.669E-02    0.145E+01
RMM:  19     0.666159395278E+03   -0.14389E-03   -0.90695E-04  8735   0.585E-02    0.145E+01
RMM:  20     0.666159449883E+03    0.54605E-04   -0.35951E-04  7640   0.485E-02    0.144E+01
RMM:  21     0.666159494255E+03    0.44372E-04   -0.19924E-04  7544   0.413E-02    0.144E+01
RMM:  22     0.666161372692E+03    0.18784E-02   -0.56456E-04 10689   0.570E-02    0.133E+01
RMM:  23     0.666168466509E+03    0.70938E-02   -0.26967E-03 12974   0.125E-01    0.113E+01
RMM:  24     0.666170145737E+03    0.16792E-02   -0.51734E-03 13602   0.145E-01    0.970E+00
RMM:  25     0.666168415569E+03   -0.17302E-02   -0.69201E-03 14168   0.145E-01    0.939E+00
RMM:  26     0.666171031861E+03    0.26163E-02   -0.12543E-03 10906   0.105E-01    0.901E+00
RMM:  27     0.666174495774E+03    0.34639E-02   -0.13036E-03 12338   0.824E-02    0.859E+00
RMM:  28     0.666181032534E+03    0.65368E-02   -0.37385E-03 13016   0.129E-01    0.649E+00
RMM:  29     0.666187884109E+03    0.68516E-02   -0.14186E-02 13591   0.198E-01    0.284E+00
RMM:  30     0.666188211831E+03    0.32772E-03   -0.43671E-03 11730   0.189E-01    0.179E+00
RMM:  31     0.666188159616E+03   -0.52215E-04   -0.18685E-03 12084   0.863E-02    0.104E+00
RMM:  32     0.666188044645E+03   -0.11497E-03   -0.74949E-04 10231   0.551E-02    0.537E-01
RMM:  33     0.666187989484E+03   -0.55160E-04   -0.28022E-04  8354   0.463E-02    0.332E-01
RMM:  34     0.666187960672E+03   -0.28812E-04   -0.18306E-04  8457   0.510E-02    0.183E-01
RMM:  35     0.666187897000E+03   -0.63672E-04   -0.18407E-04  8770   0.451E-02    0.616E-02
RMM:  36     0.666187840821E+03   -0.56178E-04   -0.12438E-04  8176   0.431E-02    0.195E-02
RMM:  37     0.666187759072E+03   -0.81749E-04   -0.59167E-05  7565   0.397E-02    0.319E-02
RMM:  38     0.666187714761E+03   -0.44311E-04   -0.37424E-05  7112   0.379E-02    0.546E-02
RMM:  39     0.666187693272E+03   -0.21489E-04   -0.19950E-05  7019   0.410E-02    0.507E-02
RMM:  40     0.666187677586E+03   -0.15685E-04   -0.99643E-06  6685   0.323E-02    0.219E-02
RMM:  41     0.666187652218E+03   -0.25368E-04   -0.55221E-06  6615   0.324E-02    0.253E-02
RMM:  42     0.666187665035E+03    0.12817E-04   -0.49123E-06  6690   0.330E-02    0.173E-02
RMM:  43     0.666187679202E+03    0.14166E-04   -0.54242E-06  6709   0.318E-02    0.133E-02
RMM:  44     0.666187688636E+03    0.94341E-05   -0.28346E-06  6568   0.293E-02
  11 F= 0.66618769E+03 E0= 0.66625311E+03  d E =-.659424E+02  mag=    -0.0064
       N       E                     dE             d eps       ncg     rms          rms(c)
DAV:   1     0.665637551549E+03   -0.55013E+00   -0.15011E+02 11216   0.196E+01    0.483E+00
RMM:   2     0.660288603530E+03   -0.53489E+01   -0.19791E+01 13074   0.117E+01    0.259E+01
RMM:   3     0.660131430223E+03   -0.15717E+00   -0.24868E+01 11905   0.171E+01    0.111E+01
RMM:   4     0.659859588683E+03   -0.27184E+00   -0.51506E+00 12458   0.599E+00    0.110E+01
RMM:   5     0.661811370478E+03    0.19518E+01   -0.17223E+00 13827   0.227E+00    0.452E+00
RMM:   6     0.661758778994E+03   -0.52591E-01   -0.82373E-01 13190   0.161E+00    0.248E+00
RMM:   7     0.661768714160E+03    0.99352E-02   -0.25433E-01 14026   0.805E-01    0.257E+00
RMM:   8     0.661817819414E+03    0.49105E-01   -0.79773E-02 13057   0.616E-01    0.213E+00
RMM:   9     0.661876247992E+03    0.58429E-01   -0.53630E-02 14227   0.395E-01    0.158E+00
RMM:  10     0.661877945026E+03    0.16970E-02   -0.17292E-02 12579   0.264E-01    0.137E+00
RMM:  11     0.661875982884E+03   -0.19621E-02   -0.84107E-03 13513   0.130E-01    0.112E+00
RMM:  12     0.661876961520E+03    0.97864E-03   -0.32836E-03 12309   0.845E-02    0.118E+00
RMM:  13     0.661877062724E+03    0.10120E-03   -0.16886E-03 10076   0.799E-02    0.117E+00
RMM:  14     0.661877313161E+03    0.25044E-03   -0.75614E-04  8552   0.647E-02    0.120E+00
RMM:  15     0.661877451383E+03    0.13822E-03   -0.37794E-04  8050   0.461E-02    0.122E+00
RMM:  16     0.661877406534E+03   -0.44849E-04   -0.17954E-04  7911   0.490E-02    0.119E+00
RMM:  17     0.661877394139E+03   -0.12394E-04   -0.75621E-05  7100   0.383E-02    0.118E+00
RMM:  18     0.661877331749E+03   -0.62390E-04   -0.40769E-05  6996   0.361E-02    0.113E+00
RMM:  19     0.661877344291E+03    0.12542E-04   -0.24600E-05  6972   0.360E-02    0.110E+00
RMM:  20     0.661877342087E+03   -0.22041E-05   -0.17962E-05  6775   0.329E-02
  12 F= 0.66187734E+03 E0= 0.66195490E+03  d E =-.431035E+01  mag=    -0.0021
       N       E                     dE             d eps       ncg     rms          rms(c)
DAV:   1     0.690258308257E+03    0.28381E+02   -0.13411E+03 11000   0.603E+01    0.207E+01
RMM:   2     0.658883778165E+03   -0.31375E+02   -0.27873E+02 13141   0.378E+01    0.133E+02
RMM:   3     0.630053414145E+03   -0.28830E+02   -0.20108E+02 11376   0.612E+01    0.285E+01
RMM:   4     0.611263942048E+03   -0.18789E+02   -0.34857E+01 12707   0.172E+01    0.373E+01
RMM:   5     0.651821613458E+03    0.40558E+02   -0.18730E+01 13237   0.750E+00    0.101E+01
RMM:   6     0.651539869619E+03   -0.28174E+00   -0.66904E+00 14254   0.373E+00    0.828E+00
RMM:   7     0.651416565914E+03   -0.12330E+00   -0.29927E+00 13215   0.287E+00    0.738E+00
RMM:   8     0.651965811451E+03    0.54925E+00   -0.11491E+00 13529   0.229E+00    0.973E+00
RMM:   9     0.652344646638E+03    0.37884E+00   -0.64806E-01 12691   0.164E+00    0.584E+00
RMM:  10     0.652342637268E+03   -0.20094E-02   -0.30353E-01 14251   0.926E-01    0.694E+00
RMM:  11     0.652347529223E+03    0.48920E-02   -0.91582E-02 13336   0.716E-01    0.684E+00
RMM:  12     0.652361574112E+03    0.14045E-01   -0.35559E-02 13784   0.294E-01    0.670E+00
RMM:  13     0.652361856077E+03    0.28196E-03   -0.21228E-02 13508   0.211E-01    0.697E+00
RMM:  14     0.652361544239E+03   -0.31184E-03   -0.89597E-03 11585   0.193E-01    0.748E+00
RMM:  15     0.652360754187E+03   -0.79005E-03   -0.38011E-03 10165   0.989E-02    0.774E+00
RMM:  16     0.652360660993E+03   -0.93194E-04   -0.18233E-03  9223   0.643E-02    0.786E+00
RMM:  17     0.652360626526E+03   -0.34467E-04   -0.71493E-04  8390   0.516E-02    0.800E+00
RMM:  18     0.652360569295E+03   -0.57230E-04   -0.38339E-04  7697   0.452E-02    0.808E+00
RMM:  19     0.652360614656E+03    0.45361E-04   -0.17726E-04  7389   0.434E-02    0.761E+00
RMM:  20     0.652360792504E+03    0.17785E-03   -0.83473E-05  7209   0.382E-02    0.723E+00
RMM:  21     0.652361026877E+03    0.23437E-03   -0.75958E-05  7317   0.363E-02    0.685E+00
RMM:  22     0.652362062669E+03    0.10358E-02   -0.36286E-04 10306   0.565E-02    0.351E+00
RMM:  23     0.652362472773E+03    0.41010E-03   -0.25915E-04 10192   0.599E-02    0.123E+00
RMM:  24     0.652362394942E+03   -0.77831E-04   -0.17576E-04  9233   0.423E-02    0.831E-01
RMM:  25     0.652362241580E+03   -0.15336E-03   -0.80740E-05  8060   0.409E-02    0.473E-01
RMM:  26     0.652362091634E+03   -0.14995E-03   -0.34013E-05  6650   0.361E-02    0.183E-01
RMM:  27     0.652361879902E+03   -0.21173E-03   -0.29340E-05  7121   0.414E-02    0.863E-02
RMM:  28     0.652361671602E+03   -0.20830E-03   -0.29592E-05  6950   0.381E-02    0.539E-02
RMM:  29     0.652361436083E+03   -0.23552E-03   -0.42898E-05  6930   0.330E-02    0.488E-02
RMM:  30     0.652361348997E+03   -0.87086E-04   -0.28112E-05  6895   0.344E-02    0.180E-02
RMM:  31     0.652361304476E+03   -0.44521E-04   -0.14558E-05  6720   0.325E-02    0.667E-03
RMM:  32     0.652361282288E+03   -0.22188E-04   -0.78960E-06  6664   0.321E-02    0.190E-02
RMM:  33     0.652361254670E+03   -0.27618E-04   -0.68365E-06  6690   0.314E-02    0.809E-03
RMM:  34     0.652361238622E+03   -0.16048E-04   -0.38365E-06  6616   0.307E-02    0.198E-02
RMM:  35     0.652361222577E+03   -0.16045E-04   -0.37979E-06  6655   0.306E-02    0.831E-03
RMM:  36     0.652361217460E+03   -0.51176E-05   -0.23463E-06  6572   0.301E-02
  13 F= 0.65236122E+03 E0= 0.65242903E+03  d E =-.138265E+02  mag=     0.0069
       N       E                     dE             d eps       ncg     rms          rms(c)
DAV:   1     0.827078538571E+03    0.17472E+03   -0.54460E+03 11266   0.130E+02    0.649E+01
RMM:   2     0.458138226242E+03   -0.36894E+03   -0.18437E+03 13398   0.847E+01    0.269E+02
RMM:   3    -0.135599272692E+03   -0.59374E+03   -0.69119E+02 11793   0.124E+02    0.240E+02
RMM:   4     0.619707238561E+03    0.75531E+03   -0.19213E+02 12194   0.448E+01    0.360E+01
RMM:   5     0.578608826625E+03   -0.41098E+02   -0.12089E+02 13481   0.183E+01    0.471E+01
RMM:   6     0.645910288728E+03    0.67301E+02   -0.33969E+01 13026   0.158E+01    0.163E+01
RMM:   7     0.642756142201E+03   -0.31541E+01   -0.15122E+01 14063   0.661E+00    0.137E+01
RMM:   8     0.646442848632E+03    0.36867E+01   -0.47959E+00 12803   0.427E+00    0.132E+01
RMM:   9     0.647399542457E+03    0.95669E+00   -0.29567E+00 14311   0.249E+00    0.111E+01
RMM:  10     0.647892965789E+03    0.49342E+00   -0.14448E+00 13105   0.228E+00    0.952E+00
RMM:  11     0.647930869478E+03    0.37904E-01   -0.48972E-01 12605   0.175E+00    0.872E+00
RMM:  12     0.647939244926E+03    0.83754E-02   -0.20865E-01 14241   0.806E-01    0.880E+00
RMM:  13     0.647945813408E+03    0.65685E-02   -0.92061E-02 13884   0.517E-01    0.958E+00
RMM:  14     0.647948535921E+03    0.27225E-02   -0.33044E-02 14128   0.288E-01    0.109E+01
RMM:  15     0.647942847029E+03   -0.56889E-02   -0.21342E-02 13351   0.196E-01    0.122E+01
RMM:  16     0.647941758060E+03   -0.10890E-02   -0.84665E-03 11801   0.212E-01    0.127E+01
RMM:  17     0.647941595229E+03   -0.16283E-03   -0.31897E-03  9885   0.106E-01    0.124E+01
RMM:  18     0.647942182929E+03    0.58770E-03   -0.15543E-03  9253   0.633E-02    0.122E+01
RMM:  19     0.647943962172E+03    0.17792E-02   -0.96668E-04 10404   0.607E-02    0.113E+01
RMM:  20     0.647944375263E+03    0.41309E-03   -0.35572E-03 13107   0.103E-01    0.801E+00
RMM:  21     0.647942423272E+03   -0.19520E-02   -0.35383E-03 13075   0.106E-01    0.576E+00
RMM:  22     0.647941853027E+03   -0.57025E-03   -0.86375E-04  9702   0.751E-02    0.503E+00
RMM:  23     0.647942435755E+03    0.58273E-03   -0.29382E-04  8442   0.527E-02    0.476E+00
RMM:  24     0.647943772736E+03    0.13370E-02   -0.61344E-04 11147   0.517E-02    0.245E+00
RMM:  25     0.647944785447E+03    0.10127E-02   -0.12339E-03 11055   0.746E-02    0.142E+00
RMM:  26     0.647945974688E+03    0.11892E-02   -0.10207E-03 11110   0.906E-02    0.106E+00
RMM:  27     0.647947485503E+03    0.15108E-02   -0.92136E-04 12235   0.680E-02    0.725E-01
RMM:  28     0.647948193523E+03    0.70802E-03   -0.89680E-04 12045   0.641E-02    0.356E-01
RMM:  29     0.647947811890E+03   -0.38163E-03   -0.67904E-04 10035   0.524E-02    0.165E-01
RMM:  30     0.647947563944E+03   -0.24795E-03   -0.23310E-04  7955   0.504E-02    0.135E-01
RMM:  31     0.647947414061E+03   -0.14988E-03   -0.98721E-05  7447   0.452E-02    0.170E-01
RMM:  32     0.647947036705E+03   -0.37736E-03   -0.14681E-04  7879   0.430E-02    0.545E-02
RMM:  33     0.647946789960E+03   -0.24674E-03   -0.10223E-04  7731   0.441E-02    0.633E-02
RMM:  34     0.647946689017E+03   -0.10094E-03   -0.57636E-05  7388   0.408E-02    0.520E-02
RMM:  35     0.647946566615E+03   -0.12240E-03   -0.25949E-05  6856   0.344E-02    0.509E-02
RMM:  36     0.647946497505E+03   -0.69110E-04   -0.12983E-05  6708   0.340E-02    0.379E-02
RMM:  37     0.647946447830E+03   -0.49675E-04   -0.99226E-06  6744   0.337E-02    0.249E-02
RMM:  38     0.647946416347E+03   -0.31483E-04   -0.73089E-06  6650   0.310E-02    0.159E-02
RMM:  39     0.647946406438E+03   -0.99089E-05   -0.20875E-06  6501   0.290E-02
  14 F= 0.64794641E+03 E0= 0.64794911E+03  d E =-.182413E+02  mag=     0.0034
       N       E                     dE             d eps       ncg     rms          rms(c)
DAV:   1     0.648626912017E+03    0.68050E+00   -0.22872E+02 11416   0.220E+01    0.400E+00
RMM:   2     0.645790201812E+03   -0.28367E+01   -0.26557E+01 12960   0.114E+01    0.794E+00
RMM:   3     0.644713705706E+03   -0.10765E+01   -0.21022E+01 11192   0.160E+01    0.382E+00
RMM:   4     0.642168086302E+03   -0.25456E+01   -0.57320E+00 12739   0.662E+00    0.103E+01
RMM:   5     0.644306949929E+03    0.21389E+01   -0.21122E+00 13114   0.251E+00    0.309E+00
RMM:   6     0.644410773302E+03    0.10382E+00   -0.78766E-01 12785   0.142E+00    0.157E+00
RMM:   7     0.644413209929E+03    0.24366E-02   -0.31466E-01 13814   0.746E-01    0.127E+00
RMM:   8     0.644431666214E+03    0.18456E-01   -0.10590E-01 12525   0.410E-01    0.908E-01
RMM:   9     0.644427889756E+03   -0.37765E-02   -0.48530E-02 13746   0.290E-01    0.990E-01
RMM:  10     0.644435501744E+03    0.76120E-02   -0.20528E-02 12595   0.291E-01    0.579E-01
RMM:  11     0.644437571425E+03    0.20697E-02   -0.86107E-03 12097   0.156E-01    0.416E-01
RMM:  12     0.644437465838E+03   -0.10559E-03   -0.33558E-03 11364   0.900E-02    0.359E-01
RMM:  13     0.644438778734E+03    0.13129E-02   -0.13354E-03  9803   0.660E-02    0.426E-01
RMM:  14     0.644438685669E+03   -0.93065E-04   -0.84517E-04  8737   0.499E-02    0.377E-01
RMM:  15     0.644438624279E+03   -0.61390E-04   -0.36305E-04  7508   0.433E-02    0.350E-01
RMM:  16     0.644438557019E+03   -0.67260E-04   -0.19767E-04  7341   0.417E-02    0.325E-01
RMM:  17     0.644438539240E+03   -0.17779E-04   -0.12972E-04  7100   0.387E-02    0.313E-01
RMM:  18     0.644438495893E+03   -0.43347E-04   -0.51883E-05  7028   0.368E-02    0.290E-01
RMM:  19     0.644438482953E+03   -0.12941E-04   -0.41352E-05  6952   0.344E-02    0.275E-01
RMM:  20     0.644438466176E+03   -0.16777E-04   -0.18600E-05  6747   0.326E-02    0.250E-01
RMM:  21     0.644438463167E+03   -0.30089E-05   -0.12071E-05  6656   0.313E-02
  15 F= 0.64443846E+03 E0= 0.64444492E+03  d E =-.350794E+01  mag=    -0.0016
       N       E                     dE             d eps       ncg     rms          rms(c)
DAV:   1     0.685874257267E+03    0.41436E+02   -0.19848E+03 11270   0.689E+01    0.267E+01
RMM:   2     0.567778481510E+03   -0.11810E+03   -0.38489E+02 13280   0.454E+01    0.126E+02
RMM:   3     0.439222912860E+03   -0.12856E+03   -0.27770E+02 12176   0.660E+01    0.869E+01
RMM:   4     0.627387395796E+03    0.18816E+03   -0.57776E+01 11985   0.257E+01    0.203E+01
RMM:   5     0.632130429727E+03    0.47430E+01   -0.28865E+01 14016   0.822E+00    0.954E+00
RMM:   6     0.634336234501E+03    0.22058E+01   -0.96795E+00 13752   0.638E+00    0.494E+00
RMM:   7     0.634084513858E+03   -0.25172E+00   -0.40610E+00 12868   0.344E+00    0.511E+00
RMM:   8     0.634355416210E+03    0.27090E+00   -0.17743E+00 14437   0.166E+00    0.394E+00
RMM:   9     0.634481173548E+03    0.12576E+00   -0.59905E-01 14053   0.106E+00    0.271E+00
RMM:  10     0.634524053879E+03    0.42880E-01   -0.24596E-01 12925   0.103E+00    0.217E+00
RMM:  11     0.634567429613E+03    0.43376E-01   -0.18214E-01 12542   0.712E-01    0.143E+00
RMM:  12     0.634568698378E+03    0.12688E-02   -0.58895E-02 13191   0.569E-01    0.118E+00
RMM:  13     0.634571669235E+03    0.29709E-02   -0.22514E-02 12987   0.301E-01    0.109E+00
RMM:  14     0.634571656548E+03   -0.12687E-04   -0.85227E-03 12916   0.162E-01    0.113E+00
RMM:  15     0.634571705093E+03    0.48544E-04   -0.41305E-03 12519   0.104E-01    0.122E+00
RMM:  16     0.634571339854E+03   -0.36524E-03   -0.21843E-03 11456   0.818E-02    0.135E+00
RMM:  17     0.634571226772E+03   -0.11308E-03   -0.99965E-04  9862   0.681E-02    0.143E+00
RMM:  18     0.634571153776E+03   -0.72996E-04   -0.49391E-04  9438   0.518E-02    0.148E+00
RMM:  19     0.634570929257E+03   -0.22452E-03   -0.27702E-04  8538   0.516E-02    0.159E+00
RMM:  20     0.634570732730E+03   -0.19653E-03   -0.19792E-04  8332   0.475E-02    0.169E+00
RMM:  21     0.634570630956E+03   -0.10177E-03   -0.10481E-04  7728   0.468E-02    0.176E+00
RMM:  22     0.634570665038E+03    0.34082E-04   -0.54172E-05  7193   0.400E-02    0.173E+00
RMM:  23     0.634570679883E+03    0.14846E-04   -0.26415E-05  6884   0.371E-02    0.172E+00
RMM:  24     0.634570669957E+03   -0.99263E-05   -0.17736E-05  6879   0.363E-02
  16 F= 0.63457067E+03 E0= 0.63459165E+03  d E =-.133757E+02  mag=     0.0009
       N       E                     dE             d eps       ncg     rms          rms(c)
DAV:   1     0.878379316822E+03    0.24381E+03   -0.81321E+03 11352   0.154E+02    0.838E+01
RMM:   2    -0.205488496416E+03   -0.10839E+04   -0.33128E+03 13662   0.108E+02    0.508E+02
RMM:   3    -0.132640559079E+04   -0.11209E+04   -0.12379E+03 12009   0.175E+02    0.329E+02
RMM:   4     0.606487311827E+03    0.19329E+04   -0.25319E+02 11767   0.550E+01    0.314E+01
RMM:   5     0.585927492684E+03   -0.20560E+02   -0.11569E+02 13374   0.222E+01    0.294E+01
RMM:   6     0.615474179716E+03    0.29547E+02   -0.44703E+01 13459   0.143E+01    0.142E+01
RMM:   7     0.615242779156E+03   -0.23140E+00   -0.16322E+01 14240   0.553E+00    0.126E+01
RMM:   8     0.611812529050E+03   -0.34303E+01   -0.51980E+00 12996   0.467E+00    0.154E+01
RMM:   9     0.615877919161E+03    0.40654E+01   -0.27124E+00 14515   0.225E+00    0.104E+01
RMM:  10     0.616477283279E+03    0.59936E+00   -0.87664E-01 13774   0.171E+00    0.806E+00
RMM:  11     0.617078463615E+03    0.60118E+00   -0.78907E-01 14339   0.128E+00    0.400E+00
RMM:  12     0.617366052431E+03    0.28759E+00   -0.35882E-01 12958   0.135E+00    0.298E+00
RMM:  13     0.617372805285E+03    0.67529E-02   -0.14760E-01 13751   0.697E-01    0.298E+00
RMM:  14     0.617407064808E+03    0.34260E-01   -0.83140E-02 14203   0.391E-01    0.282E+00
RMM:  15     0.617437363973E+03    0.30299E-01   -0.18706E-02 12243   0.355E-01    0.290E+00
RMM:  16     0.617439225059E+03    0.18611E-02   -0.11399E-02 12903   0.141E-01    0.293E+00
RMM:  17     0.617445332421E+03    0.61074E-02   -0.33345E-03 11827   0.130E-01    0.302E+00
RMM:  18     0.617453393246E+03    0.80608E-02   -0.38096E-03 13271   0.972E-02    0.314E+00
RMM:  19     0.617456598849E+03    0.32056E-02   -0.21278E-03 11390   0.826E-02    0.335E+00
RMM:  20     0.617458197720E+03    0.15989E-02   -0.92862E-04  9448   0.565E-02    0.340E+00
RMM:  21     0.617461173212E+03    0.29755E-02   -0.76203E-04 10732   0.547E-02    0.360E+00
RMM:  22     0.617463413439E+03    0.22402E-02   -0.78453E-04 11406   0.550E-02    0.384E+00
RMM:  23     0.617464850408E+03    0.14370E-02   -0.13210E-03 12421   0.633E-02    0.427E+00
RMM:  24     0.617464532254E+03   -0.31815E-03   -0.81346E-04 10028   0.597E-02    0.444E+00
RMM:  25     0.617463240856E+03   -0.12914E-02   -0.67369E-04  9867   0.569E-02    0.473E+00
RMM:  26     0.617462860059E+03   -0.38080E-03   -0.36621E-04  8382   0.494E-02    0.496E+00
RMM:  27     0.617462260729E+03   -0.59933E-03   -0.14054E-04  7750   0.441E-02    0.510E+00
RMM:  28     0.617462134326E+03   -0.12640E-03   -0.72532E-05  7533   0.394E-02    0.522E+00
RMM:  29     0.617462484666E+03    0.35034E-03   -0.32777E-05  7080   0.398E-02    0.503E+00
RMM:  30     0.617462511765E+03    0.27099E-04   -0.23856E-05  6849   0.360E-02    0.484E+00
RMM:  31     0.617462595128E+03    0.83363E-04   -0.27892E-04  9775   0.437E-02    0.427E+00
RMM:  32     0.617463310373E+03    0.71524E-03   -0.91924E-05  7711   0.481E-02    0.334E+00
RMM:  33     0.617463956977E+03    0.64660E-03   -0.32326E-04 10346   0.439E-02    0.190E+00
RMM:  34     0.617464580302E+03    0.62332E-03   -0.27848E-04  9745   0.500E-02    0.671E-01
RMM:  35     0.617465139440E+03    0.55914E-03   -0.25776E-04  8888   0.544E-02    0.225E-01
RMM:  36     0.617464991451E+03   -0.14799E-03   -0.10225E-04  7563   0.443E-02    0.932E-02
RMM:  37     0.617464650129E+03   -0.34132E-03   -0.68687E-05  7535   0.461E-02    0.505E-02
RMM:  38     0.617464383133E+03   -0.26700E-03   -0.77744E-05  7929   0.418E-02    0.352E-02
RMM:  39     0.617464242451E+03   -0.14068E-03   -0.51655E-05  7412   0.398E-02    0.571E-02
RMM:  40     0.617464150315E+03   -0.92136E-04   -0.27973E-05  7058   0.383E-02    0.495E-02
RMM:  41     0.617464066031E+03   -0.84285E-04   -0.10548E-05  6728   0.335E-02    0.530E-02
RMM:  42     0.617463981690E+03   -0.84341E-04   -0.96272E-06  6802   0.354E-02    0.266E-02
RMM:  43     0.617463912709E+03   -0.68981E-04   -0.53834E-06  6571   0.309E-02    0.214E-02
RMM:  44     0.617463893036E+03   -0.19673E-04   -0.58109E-06  6661   0.319E-02    0.184E-02
RMM:  45     0.617463885782E+03   -0.72535E-05   -0.29093E-06  6534   0.311E-02
  17 F= 0.61746389E+03 E0= 0.61751830E+03  d E =-.304825E+02  mag=     0.0026
       N       E                     dE             d eps       ncg     rms          rms(c)
DAV:   1     0.180589439011E+04    0.11884E+04   -0.34457E+04 11528   0.306E+02    0.267E+02
RMM:   2    -0.340776471530E+04   -0.52137E+04   -0.16260E+04 14254   0.253E+02    0.307E+02
RMM:   3    -0.190731524425E+04    0.15004E+04   -0.26230E+03 12019   0.151E+02    0.662E+02
RMM:   4    -0.192335971374E+04   -0.16044E+02   -0.69983E+02 10140   0.924E+01    0.443E+02
RMM:   5    -0.796406017824E+03    0.11270E+04   -0.17156E+03 13482   0.898E+01    0.252E+02
RMM:   6    -0.785951647820E+03    0.10454E+02   -0.66800E+02 13809   0.436E+01    0.291E+02
RMM:   7    -0.794314497316E+03   -0.83628E+01   -0.35700E+02 13816   0.246E+01    0.301E+02
RMM:   8    -0.110500391066E+03    0.68381E+03   -0.94524E+01 13384   0.218E+01    0.236E+02
RMM:   9     0.480637104836E+03    0.59114E+03   -0.41798E+01 14004   0.108E+01    0.171E+02
RMM:  10     0.454964715712E+03   -0.25672E+02   -0.33129E+01 13895   0.813E+00    0.208E+02
RMM:  11     0.439222532106E+03   -0.15742E+02   -0.25495E+01 14174   0.835E+00    0.285E+02
RMM:  12     0.465355959071E+03    0.26133E+02   -0.66489E+00 11953   0.512E+00    0.252E+02
RMM:  13     0.489752872395E+03    0.24397E+02   -0.66932E+00 13838   0.413E+00    0.203E+02
RMM:  14     0.533668783816E+03    0.43916E+02   -0.13150E+01 14066   0.707E+00    0.112E+02
RMM:  15     0.586374496237E+03    0.52706E+02   -0.59260E+01 14279   0.135E+01    0.835E+01
RMM:  16     0.582391481224E+03   -0.39830E+01   -0.30578E+01 12939   0.957E+00    0.106E+02
RMM:  17     0.583040881679E+03    0.64940E+00   -0.89168E+00 12558   0.950E+00    0.119E+02
RMM:  18     0.580000962005E+03   -0.30399E+01   -0.78396E+00 13910   0.280E+00    0.124E+02
RMM:  19     0.584244379115E+03    0.42434E+01   -0.17831E+00 12926   0.358E+00    0.992E+01
RMM:  20     0.582026037374E+03   -0.22183E+01   -0.58188E+00 13624   0.446E+00    0.744E+01
RMM:  21     0.591428807948E+03    0.94028E+01   -0.79002E+00 13750   0.625E+00    0.168E+01
RMM:  22     0.591920284181E+03    0.49148E+00   -0.27850E+00 12690   0.414E+00    0.144E+01
RMM:  23     0.591013843894E+03   -0.90644E+00   -0.69127E-01 12443   0.282E+00    0.150E+01
RMM:  24     0.589812299577E+03   -0.12015E+01   -0.10832E+00 14233   0.167E+00    0.254E+01
RMM:  25     0.590922187791E+03    0.11099E+01   -0.34839E-01 13717   0.124E+00    0.215E+01
RMM:  26     0.590797687154E+03   -0.12450E+00   -0.10905E-01 13164   0.826E-01    0.169E+01
RMM:  27     0.591070138341E+03    0.27245E+00   -0.59278E-02 13297   0.588E-01    0.130E+01
RMM:  28     0.591180765805E+03    0.11063E+00   -0.72535E-02 14549   0.405E-01    0.121E+01
RMM:  29     0.591115060375E+03   -0.65705E-01   -0.91890E-02 13696   0.590E-01    0.982E+00
RMM:  30     0.591125489750E+03    0.10429E-01   -0.58088E-02 13962   0.363E-01    0.869E+00
RMM:  31     0.590939321725E+03   -0.18617E+00   -0.48122E-02 12700   0.638E-01    0.799E+00
RMM:  32     0.590993214986E+03    0.53893E-01   -0.64342E-02 13754   0.523E-01    0.851E+00
RMM:  33     0.590980398243E+03   -0.12817E-01   -0.22647E-02 13093   0.300E-01    0.863E+00
RMM:  34     0.590940214085E+03   -0.40184E-01   -0.18326E-02 13854   0.190E-01    0.933E+00
RMM:  35     0.590915020759E+03   -0.25193E-01   -0.68749E-03 12707   0.146E-01    0.968E+00
RMM:  36     0.590910765771E+03   -0.42550E-02   -0.30490E-03 10278   0.101E-01    0.978E+00
RMM:  37     0.590909369750E+03   -0.13960E-02   -0.13754E-03 10063   0.688E-02    0.976E+00
RMM:  38     0.590901568064E+03   -0.78017E-02   -0.12172E-03  9709   0.531E-02    0.987E+00
RMM:  39     0.590908812527E+03    0.72445E-02   -0.38010E-04  7935   0.520E-02    0.975E+00
RMM:  40     0.590983419192E+03    0.74607E-01   -0.69267E-03 12363   0.109E-01    0.823E+00
RMM:  41     0.591083322233E+03    0.99903E-01   -0.30016E-02 13200   0.385E-01    0.561E+00
RMM:  42     0.591147484450E+03    0.64162E-01   -0.73569E-02 13799   0.338E-01    0.321E+00
RMM:  43     0.591157829560E+03    0.10345E-01   -0.32896E-02 12491   0.540E-01    0.203E+00
RMM:  44     0.591167700150E+03    0.98706E-02   -0.19580E-02 13320   0.246E-01    0.148E+00
RMM:  45     0.591186342837E+03    0.18643E-01   -0.12548E-02 13347   0.200E-01    0.145E+00
RMM:  46     0.591194228940E+03    0.78861E-02   -0.57162E-03 13555   0.122E-01    0.105E+00
RMM:  47     0.591219680812E+03    0.25452E-01   -0.66822E-03 13317   0.142E-01    0.283E-01
RMM:  48     0.591223645403E+03    0.39646E-02   -0.59010E-03 12883   0.115E-01    0.837E-01
RMM:  49     0.591228720578E+03    0.50752E-02   -0.22035E-03 11148   0.131E-01    0.718E-01
RMM:  50     0.591231466796E+03    0.27462E-02   -0.13804E-03  9601   0.569E-02    0.680E-01
RMM:  51     0.591231337991E+03   -0.12880E-03   -0.95411E-04 10296   0.624E-02    0.414E-01
RMM:  52     0.591228387045E+03   -0.29509E-02   -0.22492E-03 12146   0.741E-02    0.708E-02
RMM:  53     0.591228086737E+03   -0.30031E-03   -0.57527E-04  8562   0.111E-01    0.566E-02
RMM:  54     0.591228652176E+03    0.56544E-03   -0.12714E-04  7989   0.514E-02    0.772E-02
RMM:  55     0.591229364061E+03    0.71188E-03   -0.70737E-05  7596   0.462E-02    0.109E-01
RMM:  56     0.591228919951E+03   -0.44411E-03   -0.47619E-05  7344   0.398E-02    0.105E-01
RMM:  57     0.591227957069E+03   -0.96288E-03   -0.26654E-05  7120   0.392E-02    0.578E-02
RMM:  58     0.591227760619E+03   -0.19645E-03   -0.15751E-05  6701   0.357E-02    0.332E-02
RMM:  59     0.591227545833E+03   -0.21479E-03   -0.10951E-05  6857   0.358E-02    0.279E-02
RMM:  60     0.591227313529E+03   -0.23230E-03   -0.85281E-06  6564   0.317E-02
  18 F= 0.59122731E+03 E0= 0.59131849E+03  d E =-.567191E+02  mag=    -0.0360
       N       E                     dE             d eps       ncg     rms          rms(c)
DAV:   1     0.306616835328E+04    0.24749E+04   -0.92082E+04 13392   0.415E+02    0.117E+03
RMM:   2    -0.769943662002E+04   -0.10766E+05   -0.22836E+04 13689   0.621E+02    0.855E+02
RMM:   3    -0.147262789236E+05   -0.70268E+04   -0.44340E+04 13267   0.398E+02    0.143E+04
RMM:   4    -0.239984849126E+03    0.14486E+05   -0.73675E+03  8961   0.626E+02    0.264E+03
RMM:   5     0.253510577689E+03    0.49350E+03   -0.40612E+03 10224   0.308E+02    0.404E+02
RMM:   6    -0.838740712321E+03   -0.10923E+04   -0.47505E+03 13200   0.158E+02    0.248E+02
RMM:   7    -0.310421659145E+03    0.52832E+03   -0.19263E+03 12826   0.984E+01    0.244E+02
RMM:   8     0.408154311979E+03    0.71858E+03   -0.47871E+02 13667   0.362E+01    0.701E+02
RMM:   9     0.472940987604E+03    0.64787E+02   -0.51329E+02 14235   0.209E+01    0.671E+02
RMM:  10     0.504857252388E+03    0.31916E+02   -0.46720E+02 14141   0.135E+01    0.448E+02
RMM:  11     0.570080726232E+03    0.65223E+02   -0.34272E+02 13729   0.174E+01    0.201E+02
RMM:  12     0.561613477599E+03   -0.84672E+01   -0.97572E+01 11942   0.205E+01    0.909E+02
RMM:  13     0.558595686733E+03   -0.30178E+01   -0.26723E+02 12894   0.136E+01    0.215E+02
RMM:  14     0.551560006321E+03   -0.70357E+01   -0.52582E+01 12423   0.137E+01    0.221E+02
RMM:  15     0.549677876656E+03   -0.18821E+01   -0.42318E+01 13596   0.863E+00    0.337E+02
RMM:  16     0.539820575076E+03   -0.98573E+01   -0.12479E+02 12620   0.951E+00    0.231E+02
RMM:  17     0.523467129921E+03   -0.16353E+02   -0.27628E+01 13528   0.728E+00    0.254E+02
RMM:  18     0.520115355886E+03   -0.33518E+01   -0.29811E+01 12841   0.699E+00    0.250E+02
RMM:  19     0.518567880408E+03   -0.15475E+01   -0.21288E+01 12955   0.520E+00    0.250E+02
RMM:  20     0.510493806224E+03   -0.80741E+01   -0.10252E+01 13731   0.451E+00    0.255E+02
RMM:  21     0.507020858469E+03   -0.34729E+01   -0.28493E+01 13054   0.519E+00    0.245E+02
RMM:  22     0.505635767225E+03   -0.13851E+01   -0.18424E+01 12466   0.469E+00    0.246E+02
RMM:  23     0.506461033414E+03    0.82527E+00   -0.18162E+00 14095   0.338E+00    0.251E+02
RMM:  24     0.509700799311E+03    0.32398E+01   -0.23365E+01 13362   0.431E+00    0.237E+02
RMM:  25     0.511151833912E+03    0.14510E+01   -0.80183E+00 13732   0.364E+00    0.225E+02
RMM:  26     0.511727725591E+03    0.57589E+00    0.21312E+00 13036   0.272E+00    0.230E+02
RMM:  27     0.511300238710E+03   -0.42749E+00   -0.22262E+00 13658   0.326E+00    0.231E+02
RMM:  28     0.509114175413E+03   -0.21861E+01   -0.18703E+01 14123   0.477E+00    0.256E+02
RMM:  29     0.509793335017E+03    0.67916E+00   -0.16822E+00 11820   0.432E+00    0.249E+02
RMM:  30     0.509585926862E+03   -0.20741E+00   -0.51326E+00 13152   0.318E+00    0.248E+02
RMM:  31     0.509858833301E+03    0.27291E+00   -0.14538E+00 13051   0.280E+00    0.249E+02
RMM:  32     0.509650103861E+03   -0.20873E+00   -0.33451E+00 12603   0.269E+00    0.250E+02
RMM:  33     0.514126683489E+03    0.44766E+01   -0.42109E+00 12821   0.365E+00    0.235E+02
RMM:  34     0.530266413809E+03    0.16140E+02   -0.53226E+00 13467   0.490E+00    0.177E+02
RMM:  35     0.537590188118E+03    0.73238E+01   -0.27556E-01 13134   0.591E+00    0.148E+02
RMM:  36     0.541899530600E+03    0.43093E+01   -0.10778E+01 13386   0.461E+00    0.129E+02
RMM:  37     0.543853059623E+03    0.19535E+01   -0.35971E-01 13920   0.303E+00    0.131E+02
RMM:  38     0.544174881022E+03    0.32182E+00   -0.42927E+00 13427   0.285E+00    0.128E+02
RMM:  39     0.543326793979E+03   -0.84809E+00   -0.12954E+00 13189   0.263E+00    0.139E+02
RMM:  40     0.542561286329E+03   -0.76551E+00   -0.16637E+00 13238   0.265E+00    0.150E+02
RMM:  41     0.542803710281E+03    0.24242E+00    0.14666E+00 13524   0.248E+00    0.155E+02
RMM:  42     0.540943961179E+03   -0.18597E+01   -0.90458E+00 13713   0.289E+00    0.182E+02
RMM:  43     0.541468585693E+03    0.52462E+00    0.47466E+00 12945   0.247E+00    0.191E+02
RMM:  44     0.542922425405E+03    0.14538E+01   -0.64070E+00 12854   0.298E+00    0.214E+02
RMM:  45     0.543717323412E+03    0.79490E+00   -0.43745E+00 12816   0.310E+00    0.232E+02
RMM:  46     0.543901542926E+03    0.18422E+00   -0.11386E+00 13069   0.260E+00    0.233E+02
RMM:  47     0.553113632584E+03    0.92121E+01   -0.45387E+00 12914   0.450E+00    0.411E+02
RMM:  48     0.554599149054E+03    0.14855E+01   -0.38371E+00 10912   0.825E+00    0.413E+02
RMM:  49     0.557020922428E+03    0.24218E+01    0.16950E+00 13405   0.367E+00    0.417E+02
RMM:  50     0.556953739786E+03   -0.67183E-01   -0.65300E+00 13272   0.331E+00    0.422E+02
RMM:  51     0.557152177683E+03    0.19844E+00   -0.12808E+00 13500   0.273E+00    0.424E+02
RMM:  52     0.556823630742E+03   -0.32855E+00   -0.74959E+00 12602   0.462E+00    0.420E+02
RMM:  53     0.557897036104E+03    0.10734E+01    0.18233E+00 13511   0.460E+00    0.409E+02
RMM:  54     0.561016869158E+03    0.31198E+01   -0.34286E+00 12544   0.401E+00    0.426E+02
RMM:  55     0.560423677716E+03   -0.59319E+00   -0.52896E+00 12604   0.424E+00    0.425E+02
RMM:  56     0.562046224864E+03    0.16225E+01    0.24009E-01 13954   0.341E+00    0.419E+02
RMM:  57     0.562374559293E+03    0.32833E+00   -0.43227E+00 13743   0.482E+00    0.377E+02
RMM:  58     0.562289254214E+03   -0.85305E-01   -0.47343E+00 13707   0.482E+00    0.343E+02
RMM:  59     0.562277731598E+03   -0.11523E-01   -0.18156E+00 14164   0.376E+00    0.282E+02
RMM:  60     0.562066133576E+03   -0.21160E+00   -0.28302E+00 13804   0.308E+00
  19 F= 0.56206613E+03 E0= 0.56209779E+03  d E =-.858803E+02  mag=    -1.1469
       N       E                     dE             d eps       ncg     rms          rms(c)
DAV:   1     0.434819267535E+04    0.37859E+04   -0.18214E+05 15840   0.315E+02    0.278E+03
RMM:   2    -0.919087440494E+04   -0.13539E+05   -0.62037E+04 12877   0.125E+03    0.565E+03
RMM:   3    -0.326002678717E+05   -0.23409E+05    0.19720E+05 11866   0.300E+03    0.392E+04
RMM:   4    -0.142345499247E+05    0.18366E+05   -0.90350E+04  8992   0.162E+03    0.379E+04
RMM:   5    -0.131159922606E+05    0.11186E+04   -0.69834E+04  9683   0.140E+03    0.151E+04
RMM:   6    -0.329876741971E+04    0.98172E+04   -0.20450E+04 10032   0.863E+02    0.659E+03
RMM:   7     0.140464246567E+04    0.47034E+04   -0.12438E+04 11435   0.520E+02    0.495E+03
RMM:   8     0.601627646017E+03   -0.80301E+03   -0.10553E+04 12583   0.346E+02    0.350E+03
RMM:   9    -0.509700734938E+03   -0.11113E+04   -0.93865E+03 13630   0.229E+02    0.391E+03
RMM:  10    -0.300082917422E+03    0.20962E+03   -0.45993E+03 13535   0.170E+02    0.605E+03
RMM:  11     0.350395533227E+02    0.33512E+03   -0.59701E+03 13346   0.120E+02    0.127E+03
RMM:  12    -0.943517189974E+04   -0.94702E+04   -0.87030E+03 12643   0.292E+02    0.778E+02
RMM:  13    -0.280645086309E+04    0.66287E+04   -0.14975E+03 13316   0.111E+02    0.777E+02
RMM:  14     0.108464923340E+03    0.29149E+04   -0.10741E+03 12860   0.797E+01    0.539E+02
RMM:  15     0.454871153535E+01   -0.10392E+03   -0.20936E+03 13875   0.590E+01    0.337E+02
RMM:  16     0.430036660671E+03    0.42549E+03   -0.49881E+02 13206   0.407E+01    0.628E+02
RMM:  17     0.342783860095E+03   -0.87253E+02   -0.91868E+02 14165   0.181E+01    0.328E+02
RMM:  18     0.392177859571E+03    0.49394E+02   -0.18342E+02 12528   0.393E+01    0.414E+02
RMM:  19     0.457625344477E+03    0.65447E+02   -0.28363E+02 14923   0.971E+00    0.505E+02
RMM:  20     0.460191065885E+03    0.25657E+01   -0.98852E+01 14177   0.723E+00    0.517E+02
RMM:  21     0.441199061223E+03   -0.18992E+02   -0.51685E+01 13336   0.107E+01    0.652E+02
RMM:  22     0.408242399471E+03   -0.32957E+02   -0.53770E+01 13841   0.107E+01    0.775E+02
RMM:  23     0.229787021680E+03   -0.17846E+03   -0.50523E+01 13438   0.149E+01    0.854E+02
RMM:  24     0.512707256250E+03    0.28292E+03   -0.41437E+01 13780   0.857E+00    0.829E+02
RMM:  25     0.419304759466E+03   -0.93402E+02   -0.28262E+01 13749   0.790E+00    0.771E+02
RMM:  26     0.489317210143E+03    0.70012E+02   -0.17633E+01 13871   0.689E+00    0.633E+02
RMM:  27     0.494542537106E+03    0.52253E+01   -0.76437E+00 13591   0.418E+00    0.561E+02
RMM:  28     0.492123559718E+03   -0.24190E+01   -0.34340E+00 14228   0.248E+00    0.501E+02
RMM:  29     0.496902139879E+03    0.47786E+01   -0.13122E+00 14390   0.137E+00    0.449E+02
RMM:  30     0.499945886604E+03    0.30437E+01   -0.68468E-01 14303   0.824E-01    0.394E+02
RMM:  31     0.502305208781E+03    0.23593E+01   -0.33561E-01 13924   0.705E-01    0.349E+02
RMM:  32     0.495874900377E+03   -0.64303E+01   -0.27158E-01 13559   0.642E-01    0.315E+02
RMM:  33     0.494858846487E+03   -0.10161E+01   -0.15172E-01 13861   0.533E-01    0.298E+02
RMM:  34     0.487775087206E+03   -0.70838E+01   -0.11865E-01 14081   0.445E-01    0.281E+02
RMM:  35     0.487305461188E+03   -0.46963E+00   -0.67841E-02 13982   0.343E-01    0.278E+02
RMM:  36     0.502747787598E+03    0.15442E+02   -0.13625E-01 12875   0.636E-01    0.275E+02
RMM:  37     0.500715680353E+03   -0.20321E+01   -0.65179E-02 12028   0.771E-01    0.275E+02
RMM:  38     0.503801572698E+03    0.30859E+01   -0.78982E-02 13971   0.512E-01    0.275E+02
RMM:  39     0.512147204790E+03    0.83456E+01   -0.29828E-01 14108   0.932E-01    0.279E+02
RMM:  40     0.518316401500E+03    0.61692E+01   -0.27727E-01 13622   0.106E+00    0.284E+02
RMM:  41     0.526399061847E+03    0.80827E+01   -0.32470E-01 13684   0.920E-01    0.296E+02
RMM:  42     0.529032701188E+03    0.26336E+01   -0.21028E-01 13721   0.842E-01    0.303E+02
RMM:  43     0.528333716945E+03   -0.69898E+00   -0.15512E-01 14128   0.595E-01    0.316E+02
RMM:  44     0.530868479749E+03    0.25348E+01   -0.13954E-01 14278   0.457E-01    0.327E+02
RMM:  45     0.529792810332E+03   -0.10757E+01   -0.62099E-02 14055   0.381E-01    0.330E+02
RMM:  46     0.534038187245E+03    0.42454E+01   -0.15030E-01 13299   0.491E-01    0.347E+02
RMM:  47     0.506336710058E+03   -0.27701E+02   -0.14556E+01 14036   0.617E+00    0.825E+02
RMM:  48     0.489572838897E+03   -0.16764E+02   -0.99732E+00 12992   0.561E+00    0.833E+02
RMM:  49     0.489849928232E+03    0.27709E+00   -0.29322E+00 13144   0.367E+00    0.795E+02
RMM:  50     0.490528215799E+03    0.67829E+00   -0.24877E+00 13265   0.213E+00    0.763E+02
RMM:  51     0.479132894290E+03   -0.11395E+02   -0.20501E+00 13967   0.276E+00    0.762E+02
RMM:  52     0.513520800887E+03    0.34388E+02   -0.82920E+01 13137   0.171E+01    0.291E+02
RMM:  53     0.486603569529E+03   -0.26917E+02   -0.78064E+01 12494   0.177E+01    0.241E+02
RMM:  54     0.492186620825E+03    0.55831E+01   -0.21230E+01 12758   0.125E+01    0.246E+02
RMM:  55     0.332755637569E+03   -0.15943E+03   -0.79404E+01 13624   0.101E+01    0.148E+02
RMM:  56     0.419738406409E+03    0.86983E+02   -0.19161E+01 12001   0.178E+01    0.155E+02
RMM:  57     0.445437723461E+03    0.25699E+02   -0.76617E+00 13642   0.597E+00    0.285E+02
RMM:  58     0.481242434054E+03    0.35805E+02   -0.76091E+00 13815   0.551E+00    0.258E+02
RMM:  59     0.496261929250E+03    0.15019E+02   -0.88230E+00 14280   0.563E+00    0.236E+02
RMM:  60     0.500349343968E+03    0.40874E+01   -0.46671E+00 14489   0.323E+00
  20 F= 0.50034934E+03 E0= 0.50034068E+03  d E =-.147597E+03  mag=     0.6656
       N       E                     dE             d eps       ncg     rms          rms(c)
DAV:   1     0.617719039664E+04    0.56809E+04   -0.83850E+04 14484   0.351E+02    0.239E+03
RMM:   2     0.119333191092E+04   -0.49839E+04   -0.54868E+04 14572   0.175E+03    0.330E+04
RMM:   3    -0.269972297878E+05   -0.28191E+05   -0.16662E+04 12600   0.278E+03    0.801E+04
RMM:   4    -0.618628170530E+05   -0.34866E+05   -0.19238E+05 14242   0.329E+03    0.673E+04
RMM:   5    -0.777962074396E+05   -0.15933E+05   -0.23799E+05 13837   0.350E+03    0.541E+04
RMM:   6    -0.463431296395E+05    0.31453E+05   -0.20898E+05 14700   0.223E+03    0.211E+04
RMM:   7    -0.146927630420E+05    0.31650E+05   -0.71874E+04 10658   0.150E+03    0.101E+04
RMM:   8    -0.340327460809E+04    0.11289E+05   -0.18669E+04  9357   0.103E+03    0.361E+03
RMM:   9    -0.404549414265E+04   -0.64222E+03   -0.45903E+03 12057   0.682E+02    0.349E+03
RMM:  10     0.638946673369E+04    0.10435E+05   -0.39274E+04 13881   0.663E+02    0.186E+04
RMM:  11     0.498405825014E+04   -0.14054E+04   -0.24318E+04 11919   0.567E+02    0.107E+04
RMM:  12     0.263989518091E+04   -0.23442E+04   -0.67535E+04 14640   0.589E+02    0.225E+04
RMM:  13    -0.203193998114E+05   -0.22959E+05   -0.17685E+05 12856   0.885E+02    0.595E+04
RMM:  14    -0.400081292557E+05   -0.19689E+05   -0.15466E+05 12997   0.959E+02    0.551E+04
RMM:  15    -0.335534782651E+05    0.64547E+04   -0.10437E+05 12179   0.696E+02    0.519E+04
RMM:  16    -0.359537941894E+05   -0.24003E+04   -0.51333E+04 12584   0.541E+02    0.283E+04
RMM:  17    -0.133535663448E+05    0.22600E+05   -0.15859E+04 10699   0.375E+02    0.134E+04
RMM:  18    -0.413543389637E+04    0.92181E+04   -0.24645E+04 10510   0.527E+02    0.325E+04
RMM:  19     0.117527546621E+03    0.42530E+04   -0.41633E+04 11057   0.730E+02    0.174E+04
RMM:  20     0.189114572809E+04    0.17736E+04   -0.21077E+04  9746   0.465E+02    0.162E+04
RMM:  21     0.777925995989E+04    0.58881E+04   -0.39544E+04 11589   0.670E+02    0.112E+04
RMM:  22     0.478505587217E+04   -0.29942E+04   -0.41136E+04 13572   0.653E+02    0.589E+03
RMM:  23     0.277940110010E+04   -0.20057E+04   -0.38508E+04 13987   0.674E+02    0.309E+03
RMM:  24     0.465920568453E+03   -0.23135E+04   -0.25160E+04 14324   0.562E+02    0.293E+03
RMM:  25    -0.564876424220E+03   -0.10308E+04   -0.20722E+04 13598   0.516E+02    0.241E+03
RMM:  26    -0.235873122348E+04   -0.17939E+04   -0.20798E+04 13313   0.466E+02    0.309E+03
RMM:  27    -0.317492685770E+04   -0.81620E+03   -0.17309E+04 13281   0.493E+02    0.220E+03
RMM:  28    -0.278546791922E+04    0.38946E+03   -0.92457E+03 12682   0.420E+02    0.190E+03
RMM:  29    -0.331393781595E+04   -0.52847E+03   -0.84817E+03 12643   0.382E+02    0.157E+03
RMM:  30    -0.463733572368E+04   -0.13234E+04   -0.88784E+03 12935   0.354E+02    0.185E+03
RMM:  31    -0.849220407681E+04   -0.38549E+04   -0.13389E+04 13027   0.453E+02    0.270E+03
RMM:  32    -0.125743844383E+05   -0.40822E+04   -0.15816E+04 12705   0.557E+02    0.438E+03
RMM:  33    -0.146318883234E+05   -0.20575E+04   -0.17243E+04 12432   0.606E+02    0.478E+03
RMM:  34    -0.163776893197E+05   -0.17458E+04   -0.20388E+04 12170   0.667E+02    0.484E+03
RMM:  35    -0.190240825547E+05   -0.26464E+04   -0.20740E+04 11878   0.730E+02    0.541E+03
RMM:  36    -0.207326758784E+05   -0.17086E+04   -0.18501E+04 11241   0.784E+02    0.548E+03
RMM:  37    -0.220271405236E+05   -0.12945E+04   -0.16624E+04 10687   0.864E+02    0.545E+03
RMM:  38    -0.229464402032E+05   -0.91930E+03   -0.12867E+04 10365   0.894E+02    0.561E+03
RMM:  39    -0.243058851844E+05   -0.13594E+04   -0.13932E+04 10137   0.966E+02    0.601E+03
RMM:  40    -0.251813602912E+05   -0.87548E+03   -0.11903E+04  9934   0.986E+02    0.640E+03
RMM:  41    -0.267904866368E+05   -0.16091E+04   -0.10739E+04  9580   0.106E+03    0.634E+03
RMM:  42    -0.286068491622E+05   -0.18164E+04   -0.49052E+03  9253   0.109E+03    0.741E+03
RMM:  43    -0.291566045505E+05   -0.54976E+03   -0.88646E+03  9093   0.121E+03    0.809E+03
RMM:  44    -0.291252459654E+05    0.31359E+02   -0.45690E+03  9115   0.125E+03    0.898E+03
RMM:  45    -0.293068191957E+05   -0.18157E+03   -0.56775E+03  9115   0.135E+03    0.964E+03
RMM:  46    -0.290979053280E+05    0.20891E+03   -0.11417E+03  9097   0.139E+03    0.110E+04
RMM:  47    -0.327029154236E+05   -0.36050E+04    0.13518E+03  8953   0.162E+03    0.137E+04
RMM:  48    -0.356368604735E+05   -0.29339E+04    0.16403E+01  8977   0.177E+03    0.159E+04
RMM:  49    -0.384411409579E+05   -0.28043E+04   -0.14002E+03  8994   0.187E+03    0.167E+04
RMM:  50    -0.396222449655E+05   -0.11811E+04    0.24563E+02  8926   0.189E+03    0.170E+04
RMM:  51    -0.399711704594E+05   -0.34893E+03    0.10669E+03  8917   0.189E+03    0.168E+04
RMM:  52    -0.415612052681E+05   -0.15900E+04    0.45099E+03  8932   0.192E+03    0.177E+04
RMM:  53    -0.392016387839E+05    0.23596E+04   -0.73563E+02  8923   0.181E+03    0.153E+04
RMM:  54    -0.345190097192E+05    0.46826E+04    0.19039E+02  8951   0.166E+03    0.128E+04
RMM:  55    -0.265067438679E+05    0.80123E+04   -0.60260E+03  8959   0.146E+03    0.950E+03
RMM:  56    -0.225860175539E+05    0.39207E+04   -0.39273E+03  8923   0.131E+03    0.770E+03
RMM:  57    -0.296280048385E+05   -0.70420E+04    0.85165E+03  8914   0.143E+03    0.106E+04
RMM:  58    -0.318449904076E+05   -0.22170E+04    0.10018E+04  8970   0.162E+03    0.128E+04
RMM:  59    -0.329539592757E+05   -0.11090E+04    0.12040E+04  8947   0.168E+03    0.140E+04
RMM:  60    -0.317490127920E+05    0.12049E+04    0.67062E+03  8992   0.168E+03
  21 F= -.31749013E+05 E0= -.31749031E+05  d E =-.323970E+05  mag=    -0.8518
       N       E                     dE             d eps       ncg     rms          rms(c)
DAV:   1    -0.191744923272E+05    0.13779E+05   -0.13273E+05 14708   0.212E+03    0.216E+03
RMM:   2    -0.819625997437E+05   -0.62788E+05   -0.47838E+06  9179   0.733E+03    0.117E+05
RMM:   3    -0.685298052892E+05    0.13433E+05   -0.24062E+06 11016   0.791E+03    0.170E+05
RMM:   4    -0.127810807101E+06   -0.59281E+05   -0.69220E+05 13752   0.668E+03    0.169E+05
RMM:   5    -0.138846227356E+06   -0.11035E+05   -0.44084E+05 13853   0.461E+03    0.166E+05
RMM:   6    -0.134986244318E+06    0.38600E+04   -0.23962E+05 13430   0.347E+03    0.151E+05
RMM:   7    -0.133630369606E+06    0.13559E+04   -0.17781E+05 12806   0.292E+03    0.148E+05
RMM:   8    -0.133898569872E+06   -0.26820E+03   -0.89987E+04 12528   0.269E+03    0.148E+05
RMM:   9    -0.119794004082E+06    0.14105E+05   -0.17027E+05 12702   0.243E+03    0.142E+05
RMM:  10    -0.119396233594E+06    0.39777E+03   -0.58720E+04 11912   0.220E+03    0.141E+05
RMM:  11    -0.117852701028E+06    0.15435E+04   -0.69731E+04 12185   0.219E+03    0.137E+05
RMM:  12    -0.130536355594E+06   -0.12684E+05   -0.11903E+05 12521   0.218E+03    0.139E+05
RMM:  13    -0.104825329715E+06    0.25711E+05   -0.11853E+05 11791   0.182E+03    0.121E+05
RMM:  14    -0.959662552636E+05    0.88591E+04   -0.93016E+04 11907   0.163E+03    0.118E+05
RMM:  15    -0.300424412546E+05    0.65924E+05   -0.15045E+05 11395   0.146E+03    0.547E+04
RMM:  16     0.126022898851E+06    0.15607E+06    0.42196E+05 14381   0.364E+03    0.165E+05
