       N       E                     dE             d eps       ncg     rms          rms(c)
DAV:   1     0.173782478184E+05    0.17378E+05   -0.65294E+05 10104   0.139E+03
DAV:   2     0.187107091456E+04   -0.15507E+05   -0.14760E+05  9760   0.499E+02
DAV:   3     0.662521252021E+03   -0.12085E+04   -0.11571E+04 10128   0.165E+02
DAV:   4     0.614444195986E+03   -0.48077E+02   -0.47360E+02 10912   0.303E+01
DAV:   5     0.611916405463E+03   -0.25278E+01   -0.25245E+01 14288   0.575E+00    0.133E+03
RMM:   6    -0.679064901796E+04   -0.74026E+04   -0.10255E+04 12992   0.682E+01    0.152E+03
RMM:   7     0.721389327715E+03    0.75120E+04   -0.75212E+02 10613   0.305E+01    0.754E+02
RMM:   8    -0.892628857072E+04   -0.96477E+04   -0.17693E+04 13500   0.996E+01    0.116E+03
RMM:   9    -0.940942768683E+03    0.79853E+04   -0.14756E+03 10555   0.367E+01    0.342E+02
RMM:  10     0.549364295950E+03    0.14903E+04   -0.47567E+03 10929   0.563E+01    0.308E+02
RMM:  11     0.611014549446E+03    0.61650E+02   -0.22686E+02 10227   0.153E+01    0.278E+02
RMM:  12     0.511098628065E+03   -0.99916E+02   -0.29159E+02 10728   0.141E+01    0.306E+02
RMM:  13     0.836248425394E+03    0.32515E+03   -0.18402E+01 10593   0.341E+00    0.263E+02
RMM:  14     0.870898866073E+03    0.34650E+02   -0.15823E+00 11137   0.103E+00    0.244E+02
RMM:  15     0.824355637670E+03   -0.46543E+02   -0.10765E+00 10231   0.897E-01    0.265E+02
RMM:  16     0.845452766126E+03    0.21097E+02   -0.17412E-01 10079   0.385E-01    0.256E+02
RMM:  17     0.969748530950E+03    0.12430E+03   -0.97574E+00  9706   0.311E+00    0.190E+02
RMM:  18     0.104551558388E+04    0.75767E+02   -0.58564E+01  9718   0.650E+00    0.557E+01
RMM:  19     0.104411976980E+04   -0.13958E+01   -0.60195E+00 10413   0.200E+00    0.651E+01
RMM:  20     0.102311022951E+04   -0.21010E+02   -0.11006E+01  9721   0.302E+00    0.146E+02
RMM:  21     0.100208447752E+04   -0.21026E+02   -0.38075E+00  9770   0.186E+00    0.158E+02
RMM:  22     0.100901709627E+04    0.69326E+01   -0.21408E+01  9583   0.398E+00    0.580E+01
RMM:  23     0.997722622721E+03   -0.11294E+02   -0.16429E+01  9645   0.348E+00    0.404E+01
RMM:  24     0.985441496427E+03   -0.12281E+02   -0.77481E+00  9983   0.248E+00    0.700E+01
RMM:  25     0.982374418878E+03   -0.30671E+01   -0.91161E+00  9655   0.260E+00    0.245E+01
RMM:  26     0.970776204032E+03   -0.11598E+02   -0.97847E+00  9594   0.273E+00    0.298E+01
RMM:  27     0.957633943361E+03   -0.13142E+02   -0.81641E+00  9682   0.214E+00    0.270E+01
RMM:  28     0.950549634567E+03   -0.70843E+01   -0.48325E+00  9590   0.156E+00    0.229E+01
RMM:  29     0.946973356947E+03   -0.35763E+01   -0.40740E+00  9662   0.132E+00    0.260E+01
RMM:  30     0.939227619286E+03   -0.77457E+01   -0.62394E+00  9675   0.138E+00    0.855E+00
RMM:  31     0.933334640393E+03   -0.58930E+01   -0.36974E+00  9745   0.120E+00    0.287E+01
RMM:  32     0.931765324192E+03   -0.15693E+01   -0.35100E+00  9729   0.106E+00    0.142E+01
RMM:  33     0.927489350957E+03   -0.42760E+01   -0.39546E+00  9946   0.968E-01    0.497E+00
RMM:  34     0.922733267606E+03   -0.47561E+01   -0.44506E+00  9668   0.100E+00    0.266E+01
RMM:  35     0.921977398868E+03   -0.75587E+00   -0.29474E+00 10107   0.644E-01    0.940E+00
RMM:  36     0.922099762891E+03    0.12236E+00   -0.38099E-01 10124   0.397E-01    0.510E+00
RMM:  37     0.921974924017E+03   -0.12484E+00   -0.29039E-01  9781   0.273E-01    0.386E+00
RMM:  38     0.921849269824E+03   -0.12565E+00   -0.17369E-01  9932   0.273E-01    0.716E+00
RMM:  39     0.921617405232E+03   -0.23186E+00   -0.46576E-02 10259   0.141E-01    0.488E+00
RMM:  40     0.920430646710E+03   -0.11868E+01   -0.71608E-02  9975   0.178E-01    0.300E+00
RMM:  41     0.919626426576E+03   -0.80422E+00   -0.10469E-02 10511   0.799E-02    0.137E+00
RMM:  42     0.919048025420E+03   -0.57840E+00   -0.11768E-02  9847   0.651E-02    0.127E+00
RMM:  43     0.918821503231E+03   -0.22652E+00   -0.11166E-02 10137   0.553E-02    0.201E+00
RMM:  44     0.918758080026E+03   -0.63423E-01   -0.34681E-03 10266   0.335E-02    0.137E+00
RMM:  45     0.918733000034E+03   -0.25080E-01   -0.11719E-03  9233   0.207E-02    0.930E-01
RMM:  46     0.918712895728E+03   -0.20104E-01   -0.82572E-04  8740   0.167E-02    0.933E-01
RMM:  47     0.918699363983E+03   -0.13532E-01   -0.48779E-04  8791   0.139E-02    0.585E-01
RMM:  48     0.918683893244E+03   -0.15471E-01   -0.59199E-04  8634   0.140E-02    0.378E-01
RMM:  49     0.918673156947E+03   -0.10736E-01   -0.41851E-04  7639   0.941E-03    0.377E-01
RMM:  50     0.918669607778E+03   -0.35492E-02   -0.11272E-04  7082   0.589E-03    0.308E-01
RMM:  51     0.918669713376E+03    0.10560E-03   -0.90993E-05  8426   0.947E-03    0.188E-01
RMM:  52     0.918666441018E+03   -0.32724E-02    0.17540E-05  7198   0.727E-03    0.609E-02
RMM:  53     0.918665136012E+03   -0.13050E-02    0.60580E-04  6464   0.425E-03    0.130E-01
RMM:  54     0.918664731868E+03   -0.40414E-03    0.62948E-04  5861   0.243E-03    0.123E-01
RMM:  55     0.918664321951E+03   -0.40992E-03    0.43651E-05  5799   0.218E-03    0.797E-02
RMM:  56     0.918664079703E+03   -0.24225E-03    0.15170E-03  5678   0.209E-03    0.282E-02
RMM:  57     0.918663939123E+03   -0.14058E-03    0.47937E-05  4602   0.150E-03    0.133E-02
RMM:  58     0.918663892824E+03   -0.46299E-04    0.12753E-04  4439   0.125E-03    0.777E-03
RMM:  59     0.918663883902E+03   -0.89221E-05    0.19257E-04  3873   0.105E-03    0.189E-03
RMM:  60     0.918663882930E+03   -0.97160E-06    0.44112E-04  3244   0.920E-04
   1 F= 0.91866388E+03 E0= 0.91871203E+03  d E =0.918664E+03  mag=     0.0004
       N       E                     dE             d eps       ncg     rms          rms(c)
DAV:   1     0.158781121551E+04    0.66915E+03   -0.38600E+04 11860   0.375E+02    0.308E+02
RMM:   2    -0.684932173468E+04   -0.84371E+04   -0.31677E+04 14322   0.155E+02    0.398E+02
RMM:   3    -0.389915250723E+04    0.29502E+04   -0.95629E+03 11431   0.875E+01    0.869E+02
RMM:   4    -0.425680717256E+04   -0.35765E+03   -0.33771E+03 12323   0.363E+01    0.958E+02
RMM:   5    -0.448635355372E+04   -0.22955E+03   -0.19258E+03 13512   0.204E+01    0.103E+03
RMM:   6    -0.333619540442E+04    0.11502E+04   -0.99339E+02 11360   0.172E+01    0.944E+02
RMM:   7    -0.247555929849E+04    0.86064E+03   -0.11921E+03 11439   0.189E+01    0.847E+02
RMM:   8     0.227854716397E+03    0.27034E+04   -0.14713E+03 10682   0.262E+01    0.495E+02
RMM:   9     0.328259434007E+03    0.10040E+03   -0.11569E+02 11011   0.829E+00    0.428E+02
RMM:  10     0.361161780125E+03    0.32902E+02   -0.18774E+01 10609   0.332E+00    0.353E+02
RMM:  11     0.322646360361E+03   -0.38515E+02   -0.59346E+01  9956   0.586E+00    0.389E+02
RMM:  12     0.413866440134E+03    0.91220E+02   -0.11593E+01 10673   0.296E+00    0.341E+02
RMM:  13     0.409161948560E+03   -0.47045E+01   -0.85933E-01 10754   0.780E-01    0.350E+02
RMM:  14     0.441868548597E+03    0.32707E+02   -0.97738E+00  9787   0.250E+00    0.277E+02
RMM:  15     0.505326217511E+03    0.63458E+02   -0.35941E+01  9883   0.481E+00    0.112E+02
RMM:  16     0.489093720572E+03   -0.16232E+02   -0.85903E+00 10730   0.207E+00    0.119E+02
RMM:  17     0.503860985302E+03    0.14767E+02   -0.12233E+00 11446   0.821E-01    0.970E+01
RMM:  18     0.502759614539E+03   -0.11014E+01   -0.30142E-01 10350   0.496E-01    0.972E+01
RMM:  19     0.522723766877E+03    0.19964E+02   -0.33286E+00 10182   0.147E+00    0.556E+01
RMM:  20     0.527634979068E+03    0.49112E+01   -0.95135E-01 10395   0.875E-01    0.436E+01
RMM:  21     0.528746257079E+03    0.11113E+01   -0.22468E-01 10976   0.394E-01    0.426E+01
RMM:  22     0.530778856614E+03    0.20326E+01   -0.32884E-01  9779   0.499E-01    0.397E+01
RMM:  23     0.532498113865E+03    0.17193E+01   -0.40629E-01  9764   0.546E-01    0.330E+01
RMM:  24     0.533565515935E+03    0.10674E+01   -0.54909E-01 10020   0.556E-01    0.342E+01
RMM:  25     0.534462877277E+03    0.89736E+00   -0.56941E-01  9761   0.567E-01    0.294E+01
RMM:  26     0.535073475049E+03    0.61060E+00   -0.12055E-01 10507   0.259E-01    0.227E+01
RMM:  27     0.535303789885E+03    0.23031E+00   -0.10124E-01  9572   0.284E-01    0.203E+01
RMM:  28     0.535424324760E+03    0.12053E+00   -0.12079E-01  9731   0.281E-01    0.178E+01
RMM:  29     0.535506231220E+03    0.81906E-01   -0.61290E-02 10149   0.179E-01    0.140E+01
RMM:  30     0.535531343137E+03    0.25112E-01   -0.19492E-02 10071   0.117E-01    0.112E+01
RMM:  31     0.535538648942E+03    0.73058E-02   -0.15655E-02  9500   0.112E-01    0.982E+00
RMM:  32     0.535531747866E+03   -0.69011E-02   -0.14553E-02  9629   0.102E-01    0.979E+00
RMM:  33     0.535517998636E+03   -0.13749E-01   -0.32280E-03 10138   0.441E-02    0.938E+00
RMM:  34     0.535517757631E+03   -0.24100E-03   -0.17075E-02  9690   0.874E-02    0.890E+00
RMM:  35     0.535526373080E+03    0.86154E-02   -0.13074E-02  9405   0.890E-02    0.659E+00
RMM:  36     0.535530761463E+03    0.43884E-02   -0.33538E-03 10254   0.438E-02    0.622E+00
RMM:  37     0.535536199767E+03    0.54383E-02   -0.18782E-03  9808   0.296E-02    0.517E+00
RMM:  38     0.535546626927E+03    0.10427E-01   -0.26480E-03  9430   0.326E-02    0.406E+00
RMM:  39     0.535552725807E+03    0.60989E-02   -0.11506E-03  9940   0.218E-02    0.344E+00
RMM:  40     0.535557528825E+03    0.48030E-02   -0.66218E-04  9282   0.185E-02    0.295E+00
RMM:  41     0.535562306778E+03    0.47780E-02   -0.11810E-03  9215   0.281E-02    0.238E+00
RMM:  42     0.535567365299E+03    0.50585E-02   -0.18567E-03  9042   0.318E-02    0.175E+00
RMM:  43     0.535570432762E+03    0.30675E-02   -0.10019E-03  9251   0.245E-02    0.117E+00
RMM:  44     0.535572852314E+03    0.24196E-02   -0.39528E-04  9193   0.149E-02    0.686E-01
RMM:  45     0.535575192206E+03    0.23399E-02   -0.31003E-04  8591   0.134E-02    0.159E-01
RMM:  46     0.535575382102E+03    0.18990E-03   -0.12695E-04  8190   0.104E-02    0.103E-01
RMM:  47     0.535574302110E+03   -0.10800E-02   -0.34756E-05  6351   0.551E-03    0.467E-02
RMM:  48     0.535573585266E+03   -0.71684E-03   -0.44067E-05  6528   0.507E-03    0.457E-02
RMM:  49     0.535572865866E+03   -0.71940E-03   -0.22467E-05  5975   0.396E-03    0.522E-02
RMM:  50     0.535572241814E+03   -0.62405E-03   -0.32020E-05  6202   0.438E-03    0.196E-02
RMM:  51     0.535571386776E+03   -0.85504E-03   -0.17240E-05  5785   0.291E-03    0.314E-02
RMM:  52     0.535570977333E+03   -0.40944E-03   -0.44954E-06  5456   0.191E-03    0.113E-02
RMM:  53     0.535570476032E+03   -0.50130E-03   -0.38067E-06  5479   0.178E-03    0.509E-03
RMM:  54     0.535569805718E+03   -0.67031E-03   -0.13830E-05  4734   0.163E-03    0.458E-03
RMM:  55     0.535569560376E+03   -0.24534E-03   -0.17282E-06  3978   0.123E-03    0.333E-03
RMM:  56     0.535569385589E+03   -0.17479E-03    0.41309E-06  4201   0.125E-03    0.238E-03
RMM:  57     0.535569272907E+03   -0.11268E-03    0.18695E-05  4294   0.123E-03    0.190E-03
RMM:  58     0.535569213337E+03   -0.59570E-04    0.55771E-05  4294   0.120E-03    0.118E-03
RMM:  59     0.535569195955E+03   -0.17382E-04    0.16082E-04  3501   0.960E-04    0.133E-03
RMM:  60     0.535569185820E+03   -0.10135E-04    0.19436E-06  3803   0.995E-04
   2 F= 0.53556919E+03 E0= 0.53558407E+03  d E =-.383095E+03  mag=     0.0001
       N       E                     dE             d eps       ncg     rms          rms(c)
DAV:   1     0.536508842407E+03    0.93965E+00   -0.14206E+02 11920   0.180E+01    0.661E+00
RMM:   2     0.532133233458E+03   -0.43756E+01   -0.16342E+01 10535   0.458E+00    0.165E+01
RMM:   3     0.534022338666E+03    0.18891E+01   -0.10268E+00 10670   0.998E-01    0.176E+01
RMM:   4     0.533378162816E+03   -0.64418E+00   -0.98705E-01 10075   0.725E-01    0.105E+01
RMM:   5     0.534636362057E+03    0.12582E+01   -0.52633E-01 10374   0.640E-01    0.990E+00
RMM:   6     0.535226234073E+03    0.58987E+00   -0.16678E-01 10462   0.300E-01    0.141E+00
RMM:   7     0.535215123126E+03   -0.11111E-01   -0.36167E-02 10419   0.154E-01    0.292E+00
RMM:   8     0.535214492263E+03   -0.63086E-03   -0.13819E-02 10312   0.994E-02    0.285E+00
RMM:   9     0.535223603651E+03    0.91114E-02   -0.70099E-03 10332   0.696E-02    0.214E+00
RMM:  10     0.535244482022E+03    0.20878E-01   -0.36156E-03 10394   0.468E-02    0.527E-01
RMM:  11     0.535245587942E+03    0.11059E-02   -0.11008E-03 10093   0.267E-02    0.354E-01
RMM:  12     0.535245533349E+03   -0.54593E-04   -0.28304E-04  9543   0.160E-02    0.341E-01
RMM:  13     0.535245656375E+03    0.12303E-03   -0.25119E-04  9320   0.131E-02    0.280E-01
RMM:  14     0.535245936740E+03    0.28036E-03   -0.85986E-05  8311   0.859E-03    0.948E-02
RMM:  15     0.535245980377E+03    0.43637E-04   -0.28473E-05  7482   0.551E-03    0.271E-02
RMM:  16     0.535245979531E+03   -0.84523E-06   -0.77181E-06  5684   0.355E-03
   3 F= 0.53524598E+03 E0= 0.53526224E+03  d E =-.383418E+03  mag=     0.0001
       N       E                     dE             d eps       ncg     rms          rms(c)
DAV:   1     0.475472396755E+03   -0.59774E+02   -0.73961E+03 11104   0.139E+02    0.102E+02
RMM:   2    -0.416907982565E+02   -0.51716E+03   -0.18386E+03 10890   0.467E+01    0.173E+02
RMM:   3    -0.788078794288E+03   -0.74639E+03   -0.67073E+02 10646   0.180E+01    0.712E+02
RMM:   4    -0.992582466210E+03   -0.20450E+03   -0.17117E+02 11464   0.623E+00    0.761E+02
RMM:   5    -0.812540455588E+03    0.18004E+03   -0.51239E+01 10372   0.415E+00    0.753E+02
RMM:   6    -0.602915022032E+03    0.20963E+03   -0.11158E+01 10993   0.190E+00    0.723E+02
RMM:   7    -0.615481622937E+03   -0.12567E+02   -0.22115E+01  9974   0.336E+00    0.722E+02
RMM:   8    -0.626855364449E+03   -0.11374E+02   -0.42051E+00 11469   0.811E-01    0.731E+02
RMM:   9    -0.606524049782E+03    0.20331E+02   -0.11795E+00 11108   0.388E-01    0.732E+02
RMM:  10    -0.511434039128E+03    0.95090E+02   -0.54983E+00  9686   0.190E+00    0.731E+02
RMM:  11    -0.525398588035E+03   -0.13965E+02   -0.56333E-01 10456   0.417E-01    0.731E+02
RMM:  12    -0.509994337119E+03    0.15404E+02   -0.21229E+02  9487   0.125E+01    0.466E+02
RMM:  13     0.671953725630E+02    0.57719E+03   -0.84932E+01 10006   0.747E+00    0.363E+02
RMM:  14     0.237405060730E+03    0.17021E+03   -0.33662E+01  9935   0.517E+00    0.352E+02
RMM:  15     0.321716849722E+03    0.84312E+02   -0.37511E+01  9950   0.473E+00    0.251E+02
RMM:  16     0.337059117244E+03    0.15342E+02   -0.76310E+00 10289   0.221E+00    0.202E+02
RMM:  17     0.369302702121E+03    0.32244E+02   -0.48747E+01  9824   0.536E+00    0.540E+01
RMM:  18     0.371269742063E+03    0.19670E+01   -0.20618E+00 10846   0.130E+00    0.485E+01
RMM:  19     0.375057351245E+03    0.37876E+01   -0.77798E-01  9862   0.821E-01    0.378E+01
RMM:  20     0.378949757999E+03    0.38924E+01   -0.13550E+00  9762   0.105E+00    0.294E+01
RMM:  21     0.379109339654E+03    0.15958E+00   -0.31122E-01 10390   0.545E-01    0.340E+01
RMM:  22     0.379974317828E+03    0.86498E+00   -0.41261E-01  9866   0.540E-01    0.367E+01
RMM:  23     0.380022953516E+03    0.48636E-01   -0.54664E-02 10930   0.214E-01    0.328E+01
RMM:  24     0.380369028149E+03    0.34607E+00   -0.63131E-02  9841   0.208E-01    0.245E+01
RMM:  25     0.380477497710E+03    0.10847E+00   -0.16889E-02 10613   0.111E-01    0.204E+01
RMM:  26     0.380604501414E+03    0.12700E+00   -0.29467E-02  9800   0.161E-01    0.153E+01
RMM:  27     0.380707662148E+03    0.10316E+00   -0.72234E-02  9516   0.251E-01    0.956E+00
RMM:  28     0.380715981057E+03    0.83189E-02   -0.85093E-03 10979   0.776E-02    0.737E+00
RMM:  29     0.380733985975E+03    0.18005E-01   -0.16257E-02 10047   0.111E-01    0.317E+00
RMM:  30     0.380798629179E+03    0.64643E-01   -0.45028E-02  9786   0.158E-01    0.291E+00
RMM:  31     0.380862791265E+03    0.64162E-01   -0.33418E-02  9714   0.128E-01    0.245E+00
RMM:  32     0.380878597186E+03    0.15806E-01   -0.50777E-03 10629   0.520E-02    0.296E+00
RMM:  33     0.380895482540E+03    0.16885E-01   -0.91199E-03  9680   0.613E-02    0.155E+00
RMM:  34     0.380910564252E+03    0.15082E-01   -0.45787E-03  9779   0.395E-02    0.234E+00
RMM:  35     0.380918924865E+03    0.83606E-02   -0.38266E-03  9586   0.368E-02    0.313E+00
RMM:  36     0.380922921557E+03    0.39967E-02   -0.25774E-03  9297   0.298E-02    0.234E+00
RMM:  37     0.380923965068E+03    0.10435E-02   -0.25884E-03  8948   0.254E-02    0.206E+00
RMM:  38     0.380922776257E+03   -0.11888E-02   -0.75346E-04 10074   0.203E-02    0.121E+00
RMM:  39     0.380921516965E+03   -0.12593E-02   -0.63289E-04  8749   0.191E-02    0.170E+00
RMM:  40     0.380920817190E+03   -0.69977E-03   -0.29086E-04  9405   0.160E-02    0.740E-01
RMM:  41     0.380920047456E+03   -0.76973E-03   -0.16544E-04  8198   0.110E-02    0.490E-01
RMM:  42     0.380919456900E+03   -0.59056E-03   -0.93070E-05  8076   0.100E-02    0.216E-01
RMM:  43     0.380918851536E+03   -0.60536E-03   -0.20350E-05  7458   0.670E-03    0.103E-01
RMM:  44     0.380918247320E+03   -0.60422E-03   -0.56249E-06  6748   0.587E-03    0.134E-01
RMM:  45     0.380917695560E+03   -0.55176E-03    0.10539E-05  6191   0.512E-03    0.179E-01
RMM:  46     0.380917403582E+03   -0.29198E-03    0.28412E-05  5902   0.343E-03    0.114E-01
RMM:  47     0.380917279489E+03   -0.12409E-03    0.33353E-05  5778   0.296E-03    0.314E-02
RMM:  48     0.380917183082E+03   -0.96408E-04    0.39032E-05  5165   0.175E-03    0.186E-02
RMM:  49     0.380917115771E+03   -0.67311E-04    0.41100E-05  4313   0.124E-03    0.124E-02
RMM:  50     0.380917055816E+03   -0.59955E-04    0.41623E-05  4400   0.109E-03    0.115E-02
RMM:  51     0.380916978022E+03   -0.77795E-04    0.41807E-05  4067   0.104E-03    0.183E-02
RMM:  52     0.380916958240E+03   -0.19782E-04    0.42955E-05  3306   0.863E-04    0.178E-03
RMM:  53     0.380916909990E+03   -0.48250E-04    0.43201E-05  3645   0.929E-04    0.502E-03
RMM:  54     0.380916869175E+03   -0.40815E-04    0.44082E-05  3352   0.871E-04    0.518E-03
RMM:  55     0.380916844568E+03   -0.24607E-04    0.45203E-05  3259   0.831E-04    0.342E-03
RMM:  56     0.380916825280E+03   -0.19288E-04    0.46176E-05  3359   0.845E-04    0.175E-03
RMM:  57     0.380916813023E+03   -0.12257E-04    0.47199E-05  3254   0.831E-04    0.630E-04
RMM:  58     0.380916807896E+03   -0.51268E-05    0.48316E-05  3020   0.767E-04
   4 F= 0.38091681E+03 E0= 0.38090179E+03  d E =-.154329E+03  mag=    -0.0005
       N       E                     dE             d eps       ncg     rms          rms(c)
DAV:   1     0.385394081976E+03    0.44773E+01   -0.25928E+03 10888   0.748E+01    0.474E+01
RMM:   2     0.329381244667E+03   -0.56013E+02   -0.35293E+02 10561   0.216E+01    0.582E+01
RMM:   3     0.216598537702E+03   -0.11278E+03   -0.37868E+01 10453   0.578E+00    0.211E+02
RMM:   4     0.195204083499E+03   -0.21394E+02   -0.90717E+00 10363   0.251E+00    0.201E+02
RMM:   5     0.343857633300E+03    0.14865E+03   -0.16421E+01 10195   0.281E+00    0.574E+01
RMM:   6     0.360678924205E+03    0.16821E+02   -0.89658E+00 10262   0.221E+00    0.172E+01
RMM:   7     0.357687028375E+03   -0.29919E+01   -0.21172E+00 10544   0.118E+00    0.406E+01
RMM:   8     0.361518324595E+03    0.38313E+01   -0.56668E-01 10011   0.630E-01    0.193E+01
RMM:   9     0.362225122650E+03    0.70680E+00   -0.21651E-01 10517   0.355E-01    0.108E+01
RMM:  10     0.362286140218E+03    0.61018E-01   -0.72708E-02 10232   0.247E-01    0.100E+01
RMM:  11     0.362289876628E+03    0.37364E-02   -0.57110E-02  9896   0.230E-01    0.585E+00
RMM:  12     0.362300923380E+03    0.11047E-01   -0.12878E-02 10323   0.113E-01    0.441E+00
RMM:  13     0.362303236080E+03    0.23127E-02   -0.35145E-03 10365   0.606E-02    0.350E+00
RMM:  14     0.362302479966E+03   -0.75611E-03   -0.27282E-03  9974   0.520E-02    0.256E+00
RMM:  15     0.362315491380E+03    0.13011E-01   -0.37842E-03 10025   0.609E-02    0.148E+00
RMM:  16     0.362319462488E+03    0.39711E-02   -0.87536E-04 10533   0.283E-02    0.121E+00
RMM:  17     0.362326009716E+03    0.65472E-02   -0.29141E-03 10040   0.466E-02    0.699E-01
RMM:  18     0.362327909769E+03    0.19001E-02   -0.12790E-03 10211   0.312E-02    0.462E-01
RMM:  19     0.362328185942E+03    0.27617E-03   -0.41964E-04 10139   0.179E-02    0.324E-01
RMM:  20     0.362328182882E+03   -0.30603E-05   -0.73214E-05  8412   0.930E-03
   5 F= 0.36232818E+03 E0= 0.36231125E+03  d E =-.172918E+03  mag=    -0.0001
       N       E                     dE             d eps       ncg     rms          rms(c)
DAV:   1     0.360565735481E+03   -0.17625E+01   -0.12198E+03 11964   0.532E+01    0.196E+01
RMM:   2     0.329497955833E+03   -0.31068E+02   -0.21386E+02 10789   0.163E+01    0.440E+01
RMM:   3     0.337811889887E+03    0.83139E+01   -0.96666E+00 10604   0.324E+00    0.349E+01
RMM:   4     0.341022758794E+03    0.32109E+01   -0.20463E+00 10484   0.131E+00    0.156E+01
RMM:   5     0.338536091702E+03   -0.24867E+01   -0.52826E+00 10347   0.176E+00    0.142E+01
RMM:   6     0.333147712380E+03   -0.53884E+01   -0.43483E+00 10516   0.149E+00    0.328E+01
RMM:   7     0.341551937486E+03    0.84042E+01   -0.17849E+00 10235   0.105E+00    0.981E+00
RMM:   8     0.342073838963E+03    0.52190E+00   -0.36751E-01 10410   0.504E-01    0.427E+00
RMM:   9     0.342049118777E+03   -0.24720E-01   -0.46362E-02 10528   0.182E-01    0.398E+00
RMM:  10     0.342169036347E+03    0.11992E+00   -0.21179E-02 10440   0.124E-01    0.200E+00
RMM:  11     0.342191552179E+03    0.22516E-01   -0.17891E-02 10176   0.117E-01    0.502E-01
RMM:  12     0.342192331235E+03    0.77906E-03   -0.33306E-03 10944   0.493E-02    0.351E-01
RMM:  13     0.342192286180E+03   -0.45055E-04   -0.19790E-03 10228   0.358E-02    0.433E-01
RMM:  14     0.342192950202E+03    0.66402E-03   -0.69215E-04 10037   0.241E-02    0.204E-01
RMM:  15     0.342193051085E+03    0.10088E-03   -0.23057E-04  9218   0.129E-02    0.997E-02
RMM:  16     0.342192983489E+03   -0.67596E-04   -0.34059E-05  7413   0.574E-03    0.104E-01
RMM:  17     0.342192936146E+03   -0.47343E-04   -0.12375E-05  6407   0.368E-03    0.779E-02
RMM:  18     0.342192863081E+03   -0.73064E-04   -0.91781E-06  6112   0.298E-03    0.391E-02
RMM:  19     0.342192816347E+03   -0.46734E-04   -0.23499E-06  5617   0.193E-03    0.252E-02
RMM:  20     0.342192730771E+03   -0.85576E-04   -0.28458E-06  5510   0.165E-03    0.151E-02
RMM:  21     0.342192630811E+03   -0.99960E-04   -0.38237E-06  5657   0.167E-03    0.405E-03
RMM:  22     0.342192579224E+03   -0.51586E-04   -0.12291E-06  4355   0.125E-03    0.284E-03
RMM:  23     0.342192524992E+03   -0.54233E-04   -0.13000E-06  4848   0.126E-03    0.217E-03
RMM:  24     0.342192485672E+03   -0.39319E-04   -0.13367E-06  4618   0.122E-03    0.569E-03
RMM:  25     0.342192469486E+03   -0.16186E-04   -0.31061E-07  4050   0.102E-03    0.420E-03
RMM:  26     0.342192457972E+03   -0.11515E-04   -0.13768E-07  4106   0.983E-04    0.173E-03
RMM:  27     0.342192455428E+03   -0.25440E-05    0.20513E-07  2776   0.744E-04
   6 F= 0.34219246E+03 E0= 0.34218901E+03  d E =-.201357E+02  mag=    -0.0000
       N       E                     dE             d eps       ncg     rms          rms(c)
DAV:   1     0.390107931936E+03    0.47915E+02   -0.30246E+03 11912   0.876E+01    0.297E+01
RMM:   2     0.261186176290E+03   -0.12892E+03   -0.72847E+02 10837   0.285E+01    0.883E+01
RMM:   3     0.322286131675E+03    0.61100E+02   -0.33154E+01 10355   0.603E+00    0.530E+01
RMM:   4     0.323642238959E+03    0.13561E+01   -0.46063E+00 10603   0.205E+00    0.422E+01
RMM:   5     0.309361086658E+03   -0.14281E+02   -0.13386E+01 10325   0.255E+00    0.358E+01
RMM:   6     0.308645027845E+03   -0.71606E+00   -0.11978E+01 10356   0.252E+00    0.600E+01
RMM:   7     0.323792384997E+03    0.15147E+02   -0.58197E+00 10579   0.178E+00    0.396E+01
RMM:   8     0.331493017824E+03    0.77006E+01   -0.12233E+00 10492   0.910E-01    0.170E+01
RMM:   9     0.332517722604E+03    0.10247E+01   -0.50816E-01 10624   0.555E-01    0.564E+00
RMM:  10     0.332626910302E+03    0.10919E+00   -0.25427E-01 10369   0.416E-01    0.345E+00
RMM:  11     0.332629632727E+03    0.27224E-02   -0.96536E-02 10439   0.260E-01    0.241E+00
RMM:  12     0.332630076625E+03    0.44390E-03   -0.67453E-02 10508   0.229E-01    0.372E+00
RMM:  13     0.332646069601E+03    0.15993E-01   -0.22557E-02 10376   0.138E-01    0.256E+00
RMM:  14     0.332673504853E+03    0.27435E-01   -0.62521E-03 10459   0.702E-02    0.470E-01
RMM:  15     0.332673571854E+03    0.67002E-04   -0.14322E-03 10500   0.361E-02    0.434E-01
RMM:  16     0.332674078270E+03    0.50642E-03   -0.37575E-04  9792   0.188E-02    0.248E-01
RMM:  17     0.332674064962E+03   -0.13307E-04   -0.53513E-04  9729   0.205E-02    0.135E-01
RMM:  18     0.332673888190E+03   -0.17677E-03   -0.26860E-04  9422   0.148E-02    0.106E-01
RMM:  19     0.332673805484E+03   -0.82706E-04   -0.56888E-05  8525   0.692E-03    0.746E-02
RMM:  20     0.332673736344E+03   -0.69140E-04   -0.34030E-05  7758   0.581E-03    0.448E-02
RMM:  21     0.332673672339E+03   -0.64005E-04   -0.11225E-05  6176   0.357E-03    0.230E-02
RMM:  22     0.332673598711E+03   -0.73627E-04   -0.49064E-06  5674   0.254E-03    0.260E-02
RMM:  23     0.332673490351E+03   -0.10836E-03   -0.52735E-06  5736   0.227E-03    0.619E-03
RMM:  24     0.332673402463E+03   -0.87888E-04   -0.31207E-06  5152   0.157E-03    0.755E-03
RMM:  25     0.332673330275E+03   -0.72188E-04   -0.23098E-06  4811   0.138E-03    0.408E-03
RMM:  26     0.332673259528E+03   -0.70747E-04   -0.26577E-06  5029   0.137E-03    0.475E-03
RMM:  27     0.332673209276E+03   -0.50252E-04   -0.23105E-06  5081   0.136E-03    0.292E-03
RMM:  28     0.332673192896E+03   -0.16380E-04   -0.84515E-07  3640   0.974E-04    0.246E-03
RMM:  29     0.332673188077E+03   -0.48198E-05   -0.26297E-07  3141   0.823E-04
   7 F= 0.33267319E+03 E0= 0.33267259E+03  d E =-.296550E+02  mag=    -0.0001
       N       E                     dE             d eps       ncg     rms          rms(c)
DAV:   1     0.327127002686E+03   -0.55462E+01   -0.28332E+02 11616   0.248E+01    0.834E+00
RMM:   2     0.321518642440E+03   -0.56084E+01   -0.42222E+01 10742   0.747E+00    0.205E+01
RMM:   3     0.322248558409E+03    0.72992E+00   -0.20207E+00 10971   0.140E+00    0.131E+01
RMM:   4     0.322696880769E+03    0.44832E+00   -0.52750E-01 10572   0.554E-01    0.466E+00
RMM:   5     0.320957891369E+03   -0.17390E+01   -0.10669E+00 10200   0.688E-01    0.118E+01
RMM:   6     0.322848062332E+03    0.18902E+01   -0.57642E-01 10385   0.640E-01    0.623E+00
RMM:   7     0.323273513350E+03    0.42545E+00   -0.20096E-01 10357   0.377E-01    0.108E+00
RMM:   8     0.323281477614E+03    0.79643E-02   -0.26482E-02 10668   0.144E-01    0.922E-01
RMM:   9     0.323289717354E+03    0.82397E-02   -0.11357E-02 10319   0.970E-02    0.598E-01
RMM:  10     0.323291795956E+03    0.20786E-02   -0.34537E-03 10509   0.566E-02    0.217E-01
RMM:  11     0.323291902536E+03    0.10658E-03   -0.14529E-03 10356   0.330E-02    0.201E-01
RMM:  12     0.323292215632E+03    0.31310E-03   -0.34648E-04  9638   0.161E-02    0.709E-02
RMM:  13     0.323292189165E+03   -0.26467E-04   -0.80629E-05  8560   0.854E-03    0.690E-02
RMM:  14     0.323292145081E+03   -0.44084E-04   -0.34067E-05  7708   0.566E-03    0.682E-02
RMM:  15     0.323292130281E+03   -0.14799E-04   -0.14692E-05  6569   0.366E-03    0.240E-02
RMM:  16     0.323292110134E+03   -0.20148E-04   -0.41229E-06  5340   0.213E-03    0.159E-02
RMM:  17     0.323292061047E+03   -0.49087E-04   -0.24372E-06  4875   0.146E-03    0.446E-03
RMM:  18     0.323292011041E+03   -0.50006E-04   -0.21918E-06  4342   0.117E-03    0.462E-03
RMM:  19     0.323291980159E+03   -0.30882E-04   -0.10700E-06  3636   0.968E-04    0.234E-03
RMM:  20     0.323291944601E+03   -0.35558E-04   -0.12727E-06  4184   0.103E-03    0.208E-03
RMM:  21     0.323291909058E+03   -0.35543E-04   -0.17611E-06  4329   0.107E-03    0.189E-03
RMM:  22     0.323291890558E+03   -0.18500E-04   -0.91535E-07  3805   0.931E-04    0.140E-03
RMM:  23     0.323291882218E+03   -0.83406E-05   -0.42683E-07  3217   0.778E-04
   8 F= 0.32329188E+03 E0= 0.32329468E+03  d E =-.938131E+01  mag=    -0.0000
       N       E                     dE             d eps       ncg     rms          rms(c)
DAV:   1     0.348369490249E+03    0.25078E+02   -0.25811E+03 11832   0.800E+01    0.299E+01
RMM:   2     0.201143449826E+03   -0.14723E+03   -0.65615E+02 10900   0.272E+01    0.938E+01
RMM:   3     0.263093238377E+03    0.61950E+02   -0.35163E+01 10185   0.609E+00    0.912E+01
RMM:   4     0.239767301136E+03   -0.23326E+02   -0.51526E+00 10810   0.200E+00    0.106E+02
RMM:   5     0.239540445445E+03   -0.22686E+00   -0.11384E+01 10086   0.235E+00    0.114E+02
RMM:   6     0.223523784153E+03   -0.16017E+02   -0.85130E-01 10823   0.719E-01    0.131E+02
RMM:   7     0.242321858843E+03    0.18798E+02   -0.58235E-01 10110   0.577E-01    0.110E+02
RMM:   8     0.296337540481E+03    0.54016E+02   -0.91786E+00 10220   0.235E+00    0.151E+01
RMM:   9     0.298517871233E+03    0.21803E+01   -0.15618E+00 10625   0.948E-01    0.122E+01
RMM:  10     0.298639201548E+03    0.12133E+00   -0.24880E-01 10804   0.398E-01    0.121E+01
RMM:  11     0.298520441307E+03   -0.11876E+00   -0.46992E-01 10259   0.580E-01    0.850E+00
RMM:  12     0.298793775892E+03    0.27333E+00   -0.40145E-01 10406   0.524E-01    0.811E+00
RMM:  13     0.298917053263E+03    0.12328E+00   -0.12686E-01 10341   0.339E-01    0.799E+00
RMM:  14     0.298952229988E+03    0.35177E-01   -0.16760E-02 10852   0.128E-01    0.100E+01
RMM:  15     0.298883710230E+03   -0.68520E-01   -0.98241E-03  9866   0.113E-01    0.128E+01
RMM:  16     0.298853694840E+03   -0.30015E-01   -0.19799E-03 10931   0.467E-02    0.137E+01
RMM:  17     0.298899308745E+03    0.45614E-01   -0.37701E-03  9950   0.645E-02    0.116E+01
RMM:  18     0.299003419592E+03    0.10411E+00   -0.28615E-02  9760   0.177E-01    0.645E+00
RMM:  19     0.299030362107E+03    0.26943E-01   -0.12972E-02 10114   0.121E-01    0.321E+00
RMM:  20     0.299027362795E+03   -0.29993E-02   -0.29192E-03 10478   0.576E-02    0.180E+00
RMM:  21     0.299032610192E+03    0.52474E-02   -0.23378E-03 10233   0.535E-02    0.378E-01
RMM:  22     0.299034336896E+03    0.17267E-02   -0.14000E-03 10566   0.368E-02    0.282E-01
RMM:  23     0.299034316139E+03   -0.20757E-04   -0.13306E-04  9347   0.114E-02    0.170E-01
RMM:  24     0.299034201099E+03   -0.11504E-03   -0.31053E-05  7805   0.530E-03    0.168E-01
RMM:  25     0.299033877931E+03   -0.32317E-03   -0.51688E-05  7793   0.618E-03    0.664E-02
RMM:  26     0.299033665585E+03   -0.21235E-03   -0.22091E-05  6570   0.375E-03    0.186E-02
RMM:  27     0.299033539891E+03   -0.12569E-03   -0.80334E-06  5869   0.267E-03    0.166E-02
RMM:  28     0.299033420648E+03   -0.11924E-03   -0.55832E-06  5629   0.201E-03    0.821E-03
RMM:  29     0.299033306906E+03   -0.11374E-03   -0.60691E-06  5478   0.164E-03    0.411E-03
RMM:  30     0.299033221430E+03   -0.85477E-04   -0.48923E-06  5043   0.147E-03    0.381E-03
RMM:  31     0.299033149651E+03   -0.71779E-04   -0.43971E-06  4611   0.134E-03    0.990E-03
RMM:  32     0.299033129500E+03   -0.20151E-04   -0.12628E-06  4078   0.107E-03    0.627E-03
RMM:  33     0.299033118359E+03   -0.11141E-04   -0.38173E-07  3587   0.907E-04    0.277E-03
RMM:  34     0.299033109829E+03   -0.85303E-05   -0.90922E-08  3463   0.847E-04
   9 F= 0.29903311E+03 E0= 0.29902723E+03  d E =-.336401E+02  mag=     0.0001
       N       E                     dE             d eps       ncg     rms          rms(c)
DAV:   1     0.556279840355E+03    0.25725E+03   -0.99318E+03 11936   0.169E+02    0.626E+01
RMM:   2    -0.547872975688E+03   -0.11042E+04   -0.51026E+03 11858   0.656E+01    0.222E+02
RMM:   3     0.311866595745E+02    0.57906E+03   -0.25994E+02 10348   0.159E+01    0.324E+02
RMM:   4     0.801655210363E+01   -0.23170E+02   -0.16485E+01 11350   0.383E+00    0.326E+02
RMM:   5     0.460847958964E+02    0.38068E+02   -0.86128E+00 10095   0.210E+00    0.308E+02
RMM:   6     0.133105462289E+03    0.87021E+02   -0.13608E+01 10067   0.295E+00    0.172E+02
RMM:   7     0.263408816720E+03    0.13030E+03   -0.64016E+01 10273   0.607E+00    0.118E+02
RMM:   8     0.275338678701E+03    0.11930E+02   -0.47882E+00 10467   0.203E+00    0.755E+01
RMM:   9     0.275675570395E+03    0.33689E+00   -0.37535E+00 10314   0.145E+00    0.783E+01
RMM:  10     0.276626052023E+03    0.95048E+00   -0.38620E+00 10285   0.172E+00    0.615E+01
RMM:  11     0.278144106744E+03    0.15181E+01   -0.21950E+00 10318   0.143E+00    0.195E+01
RMM:  12     0.279056131027E+03    0.91202E+00   -0.11754E+00 10172   0.936E-01    0.118E+01
RMM:  13     0.279040420403E+03   -0.15711E-01   -0.15284E-01 10628   0.363E-01    0.130E+01
RMM:  14     0.279352643123E+03    0.31222E+00   -0.27747E-01 10049   0.468E-01    0.115E+01
RMM:  15     0.279787456683E+03    0.43481E+00   -0.19538E-01 10006   0.401E-01    0.172E+01
RMM:  16     0.279843111027E+03    0.55654E-01   -0.85321E-02 10119   0.260E-01    0.138E+01
RMM:  17     0.279875429122E+03    0.32318E-01   -0.43203E-02  9991   0.195E-01    0.825E+00
RMM:  18     0.279893738137E+03    0.18309E-01   -0.41175E-02 10019   0.190E-01    0.529E+00
RMM:  19     0.279895450697E+03    0.17126E-02   -0.23659E-02 10317   0.142E-01    0.145E+00
RMM:  20     0.279896607558E+03    0.11569E-02   -0.22880E-03 11098   0.427E-02    0.164E+00
RMM:  21     0.279896933556E+03    0.32600E-03   -0.16752E-03 10302   0.349E-02    0.173E+00
RMM:  22     0.279898979782E+03    0.20462E-02   -0.45819E-04  9684   0.188E-02    0.182E+00
RMM:  23     0.279901615153E+03    0.26354E-02   -0.47299E-04  9622   0.176E-02    0.127E+00
RMM:  24     0.279902942151E+03    0.13270E-02   -0.39073E-04  9041   0.162E-02    0.813E-01
RMM:  25     0.279903768386E+03    0.82623E-03   -0.73168E-04  9425   0.211E-02    0.191E-01
RMM:  26     0.279903245021E+03   -0.52336E-03   -0.31806E-04  8734   0.129E-02    0.124E-01
RMM:  27     0.279902347552E+03   -0.89747E-03   -0.13061E-04  7913   0.834E-03    0.590E-02
RMM:  28     0.279901725556E+03   -0.62200E-03   -0.90718E-05  7447   0.662E-03    0.108E-01
RMM:  29     0.279901370064E+03   -0.35549E-03   -0.16231E-05  6131   0.379E-03    0.440E-02
RMM:  30     0.279901008581E+03   -0.36148E-03   -0.20377E-05  6127   0.293E-03    0.344E-02
RMM:  31     0.279900881895E+03   -0.12669E-03   -0.67619E-06  5560   0.207E-03    0.206E-02
RMM:  32     0.279900771689E+03   -0.11021E-03   -0.30228E-06  5341   0.172E-03    0.110E-02
RMM:  33     0.279900706125E+03   -0.65565E-04   -0.11928E-06  4856   0.139E-03    0.707E-03
RMM:  34     0.279900651027E+03   -0.55097E-04   -0.12585E-06  4802   0.130E-03    0.246E-03
RMM:  35     0.279900625505E+03   -0.25522E-04    0.58956E-08  3587   0.927E-04    0.308E-03
RMM:  36     0.279900604747E+03   -0.20758E-04    0.30795E-07  3350   0.840E-04    0.349E-03
RMM:  37     0.279900577013E+03   -0.27735E-04    0.21448E-07  3522   0.850E-04    0.238E-03
RMM:  38     0.279900552168E+03   -0.24845E-04    0.35037E-07  3002   0.765E-04    0.158E-03
RMM:  39     0.279900536109E+03   -0.16058E-04    0.48773E-07  2939   0.752E-04    0.167E-03
RMM:  40     0.279900521668E+03   -0.14441E-04    0.47132E-07  3399   0.824E-04    0.907E-04
RMM:  41     0.279900515194E+03   -0.64746E-05    0.62911E-07  2866   0.717E-04
  10 F= 0.27990052E+03 E0= 0.27989529E+03  d E =-.527727E+02  mag=     0.0008
       N       E                     dE             d eps       ncg     rms          rms(c)
DAV:   1     0.286640198333E+03    0.67397E+01   -0.16892E+03 11728   0.615E+01    0.254E+01
RMM:   2     0.160844756707E+03   -0.12580E+03   -0.42250E+02 10853   0.212E+01    0.905E+01
RMM:   3     0.226909826376E+03    0.66065E+02   -0.24808E+01 10192   0.493E+00    0.805E+01
RMM:   4     0.199575856990E+03   -0.27334E+02   -0.45072E+00 10534   0.185E+00    0.103E+02
RMM:   5     0.189402540419E+03   -0.10173E+02   -0.10998E+01  9952   0.223E+00    0.130E+02
RMM:   6     0.189658430048E+03    0.25589E+00   -0.55766E-01 11448   0.519E-01    0.131E+02
RMM:   7     0.193512566580E+03    0.38541E+01   -0.11206E-01  9844   0.260E-01    0.126E+02
RMM:   8     0.213830487604E+03    0.20318E+02   -0.16570E+00  9883   0.959E-01    0.100E+02
RMM:   9     0.247040565319E+03    0.33210E+02   -0.94047E+00  9964   0.216E+00    0.272E+01
RMM:  10     0.253917171083E+03    0.68766E+01   -0.31583E+00 10474   0.134E+00    0.228E+01
RMM:  11     0.254074900870E+03    0.15773E+00   -0.19458E-01 11305   0.331E-01    0.216E+01
RMM:  12     0.254165624516E+03    0.90724E-01   -0.60217E-02 10165   0.214E-01    0.203E+01
RMM:  13     0.254579171347E+03    0.41355E+00   -0.43959E-01 10005   0.626E-01    0.178E+01
RMM:  14     0.254992744467E+03    0.41357E+00   -0.54805E-01  9654   0.628E-01    0.108E+01
RMM:  15     0.254999834402E+03    0.70899E-02   -0.33207E-02 10830   0.181E-01    0.109E+01
RMM:  16     0.255014575771E+03    0.14741E-01   -0.34419E-02  9774   0.158E-01    0.977E+00
RMM:  17     0.254879249947E+03   -0.13533E+00   -0.25789E-01  9495   0.425E-01    0.719E+00
RMM:  18     0.254585259252E+03   -0.29399E+00   -0.23223E-01  9573   0.395E-01    0.727E+00
RMM:  19     0.254245414252E+03   -0.33985E+00   -0.12317E-01  9880   0.301E-01    0.797E+00
RMM:  20     0.254098583950E+03   -0.14683E+00   -0.27621E-02 10322   0.141E-01    0.848E+00
RMM:  21     0.254502576569E+03    0.40399E+00   -0.96633E-02  9650   0.274E-01    0.692E+00
RMM:  22     0.254884750102E+03    0.38217E+00   -0.23771E-01  9564   0.427E-01    0.574E+00
RMM:  23     0.254604749762E+03   -0.28000E+00   -0.21054E+00  9501   0.127E+00    0.104E+01
RMM:  24     0.254940926593E+03    0.33618E+00   -0.67516E-02 10317   0.293E-01    0.795E+00
RMM:  25     0.254842651266E+03   -0.98275E-01   -0.32607E-02  9866   0.152E-01    0.858E+00
RMM:  26     0.254699285781E+03   -0.14337E+00   -0.63537E-02  9605   0.226E-01    0.800E+00
RMM:  27     0.254719168572E+03    0.19883E-01   -0.29377E-03 10894   0.604E-02    0.729E+00
RMM:  28     0.254783542115E+03    0.64374E-01   -0.91565E-03  9419   0.836E-02    0.615E+00
RMM:  29     0.254876427185E+03    0.92885E-01   -0.24044E-02  9468   0.135E-01    0.503E+00
RMM:  30     0.254992225128E+03    0.11580E+00   -0.74963E-02  9475   0.240E-01    0.309E+00
RMM:  31     0.255030699779E+03    0.38475E-01   -0.30776E-02  9709   0.150E-01    0.196E+00
RMM:  32     0.255049975732E+03    0.19276E-01   -0.19105E-02  9862   0.117E-01    0.106E+00
RMM:  33     0.255054274756E+03    0.42990E-02   -0.53978E-03 10092   0.613E-02    0.646E-01
RMM:  34     0.255055739707E+03    0.14650E-02   -0.13819E-03 10273   0.314E-02    0.448E-01
RMM:  35     0.255056698336E+03    0.95863E-03   -0.13451E-03  9541   0.309E-02    0.214E-01
RMM:  36     0.255056756264E+03    0.57929E-04   -0.15022E-03  9473   0.321E-02    0.432E-02
RMM:  37     0.255056694128E+03   -0.62137E-04   -0.55709E-05  7682   0.768E-03    0.352E-02
RMM:  38     0.255056556227E+03   -0.13790E-03   -0.34496E-05  6507   0.518E-03    0.204E-02
RMM:  39     0.255056485602E+03   -0.70625E-04   -0.11755E-05  5896   0.297E-03    0.688E-03
RMM:  40     0.255056457365E+03   -0.28237E-04   -0.10116E-05  5875   0.293E-03    0.239E-02
RMM:  41     0.255056431666E+03   -0.25699E-04   -0.21277E-06  5252   0.187E-03    0.149E-02
RMM:  42     0.255056413064E+03   -0.18601E-04   -0.52675E-06  5635   0.238E-03    0.101E-02
RMM:  43     0.255056401504E+03   -0.11561E-04   -0.38270E-07  4071   0.112E-03    0.827E-03
RMM:  44     0.255056386507E+03   -0.14996E-04    0.17747E-08  3465   0.911E-04    0.662E-03
RMM:  45     0.255056369749E+03   -0.16758E-04    0.55047E-08  3517   0.872E-04    0.379E-03
RMM:  46     0.255056355186E+03   -0.14563E-04   -0.13029E-07  3887   0.924E-04    0.354E-03
RMM:  47     0.255056347318E+03   -0.78680E-05    0.17380E-07  2456   0.644E-04
  11 F= 0.25505635E+03 E0= 0.25505238E+03  d E =-.248442E+02  mag=     0.0020
       N       E                     dE             d eps       ncg     rms          rms(c)
DAV:   1     0.560691382490E+03    0.30564E+03   -0.13407E+04 11924   0.190E+02    0.768E+01
RMM:   2    -0.215845767695E+04   -0.27191E+04   -0.93826E+03 13069   0.849E+01    0.309E+02
RMM:   3    -0.204652355181E+03    0.19538E+04   -0.57569E+02 10180   0.224E+01    0.456E+02
RMM:   4    -0.194954569016E+03    0.96978E+01   -0.35556E+01 11873   0.512E+00    0.463E+02
RMM:   5    -0.212729169913E+03   -0.17775E+02   -0.39062E+00 11539   0.149E+00    0.477E+02
RMM:   6    -0.824068013350E+02    0.13032E+03   -0.15087E+01  9906   0.289E+00    0.301E+02
RMM:   7     0.138537927950E+03    0.22094E+03   -0.10299E+02 10258   0.663E+00    0.968E+01
RMM:   8     0.189799091404E+03    0.51261E+02   -0.17362E+01 10602   0.319E+00    0.480E+01
RMM:   9     0.180515616228E+03   -0.92835E+01   -0.11218E+00 10551   0.908E-01    0.715E+01
RMM:  10     0.188152615092E+03    0.76370E+01   -0.89377E+00 10044   0.255E+00    0.404E+01
RMM:  11     0.189662362562E+03    0.15097E+01   -0.75914E+00 10275   0.233E+00    0.398E+01
RMM:  12     0.181860561629E+03   -0.78018E+01   -0.77979E+00 10448   0.222E+00    0.290E+01
RMM:  13     0.180728647587E+03   -0.11319E+01   -0.18336E+00 10476   0.109E+00    0.276E+01
RMM:  14     0.179671565704E+03   -0.10571E+01   -0.38644E-01 10697   0.483E-01    0.306E+01
RMM:  15     0.173046305335E+03   -0.66253E+01   -0.94020E-01 10023   0.817E-01    0.341E+01
RMM:  16     0.174765266675E+03    0.17190E+01   -0.92121E-02 10609   0.284E-01    0.316E+01
RMM:  17     0.179927991772E+03    0.51627E+01   -0.82908E-01  9872   0.814E-01    0.261E+01
RMM:  18     0.189246056233E+03    0.93181E+01   -0.39213E+00  9949   0.181E+00    0.268E+01
RMM:  19     0.190231287591E+03    0.98523E+00   -0.58179E+00  9959   0.208E+00    0.445E+01
RMM:  20     0.190034676741E+03   -0.19661E+00   -0.50643E-01 11053   0.568E-01    0.466E+01
RMM:  21     0.190003647418E+03   -0.31029E-01   -0.23646E-02 11535   0.136E-01    0.469E+01
RMM:  22     0.190102311323E+03    0.98664E-01   -0.86954E-03  9523   0.925E-02    0.463E+01
RMM:  23     0.190145616054E+03    0.43305E-01   -0.54347E-02  9789   0.171E-01    0.471E+01
RMM:  24     0.188527070939E+03   -0.16185E+01   -0.99321E-01  9609   0.668E-01    0.571E+01
RMM:  25     0.188703642263E+03    0.17657E+00   -0.36024E-02 10552   0.167E-01    0.569E+01
RMM:  26     0.189724981101E+03    0.10213E+01   -0.11303E-01  9802   0.301E-01    0.518E+01
RMM:  27     0.192319355627E+03    0.25944E+01   -0.12739E+00  9862   0.101E+00    0.312E+01
RMM:  28     0.192487418832E+03    0.16806E+00   -0.17286E-01 10562   0.343E-01    0.304E+01
RMM:  29     0.192787389889E+03    0.29997E+00   -0.60096E-02  9585   0.239E-01    0.301E+01
RMM:  30     0.193288136369E+03    0.50075E+00   -0.64310E-02  9631   0.227E-01    0.261E+01
RMM:  31     0.193392659610E+03    0.10452E+00   -0.32591E-02  9716   0.169E-01    0.248E+01
RMM:  32     0.193663553634E+03    0.27089E+00   -0.72358E-02  9910   0.259E-01    0.189E+01
RMM:  33     0.193777894353E+03    0.11434E+00   -0.46310E-02 10018   0.191E-01    0.146E+01
RMM:  34     0.193992543003E+03    0.21465E+00   -0.67849E-02  9398   0.212E-01    0.111E+01
RMM:  35     0.194078254548E+03    0.85712E-01   -0.17774E-02 10223   0.111E-01    0.773E+00
RMM:  36     0.194113529396E+03    0.35275E-01   -0.80320E-03 10219   0.695E-02    0.587E+00
RMM:  37     0.194148907519E+03    0.35378E-01   -0.51178E-03 10277   0.537E-02    0.373E+00
RMM:  38     0.194179656178E+03    0.30749E-01   -0.12649E-02  9602   0.907E-02    0.147E+00
RMM:  39     0.194185502284E+03    0.58461E-02   -0.50154E-03  9861   0.634E-02    0.680E-01
RMM:  40     0.194186282594E+03    0.78031E-03   -0.11197E-03 10455   0.308E-02    0.443E-01
RMM:  41     0.194184418237E+03   -0.18644E-02   -0.10812E-03  9562   0.239E-02    0.272E-01
RMM:  42     0.194183690701E+03   -0.72754E-03   -0.47087E-04  9765   0.197E-02    0.392E-01
RMM:  43     0.194183129179E+03   -0.56152E-03   -0.85380E-05  8320   0.869E-03    0.291E-01
RMM:  44     0.194182860275E+03   -0.26890E-03   -0.10083E-04  7432   0.745E-03    0.255E-01
RMM:  45     0.194182883452E+03    0.23177E-04   -0.15793E-04  8025   0.902E-03    0.196E-01
RMM:  46     0.194182822604E+03   -0.60848E-04   -0.58002E-05  6754   0.479E-03    0.133E-01
RMM:  47     0.194182378163E+03   -0.44444E-03   -0.15389E-04  8960   0.108E-02    0.218E-02
RMM:  48     0.194182345939E+03   -0.32224E-04   -0.14004E-05  6187   0.361E-03    0.179E-02
RMM:  49     0.194182308649E+03   -0.37290E-04   -0.63967E-06  5712   0.227E-03    0.133E-02
RMM:  50     0.194182169896E+03   -0.13875E-03   -0.22592E-06  5481   0.171E-03    0.781E-03
RMM:  51     0.194182052292E+03   -0.11760E-03   -0.32391E-06  4762   0.136E-03    0.641E-03
RMM:  52     0.194181988123E+03   -0.64168E-04   -0.12452E-06  4173   0.109E-03    0.620E-03
RMM:  53     0.194181928399E+03   -0.59724E-04   -0.11867E-06  3902   0.107E-03    0.361E-03
RMM:  54     0.194181881305E+03   -0.47094E-04   -0.29014E-06  4240   0.117E-03    0.306E-03
RMM:  55     0.194181827260E+03   -0.54045E-04   -0.81881E-07  3637   0.908E-04    0.379E-03
RMM:  56     0.194181733641E+03   -0.93620E-04   -0.13329E-06  2918   0.802E-04    0.234E-03
RMM:  57     0.194181705047E+03   -0.28594E-04   -0.22499E-07  2999   0.774E-04    0.203E-03
RMM:  58     0.194181676120E+03   -0.28926E-04   -0.11610E-06  3508   0.896E-04    0.500E-03
RMM:  59     0.194181636255E+03   -0.39865E-04   -0.44859E-07  3401   0.910E-04    0.369E-03
RMM:  60     0.194181614463E+03   -0.21792E-04   -0.44358E-07  3321   0.888E-04
  12 F= 0.19418161E+03 E0= 0.19416377E+03  d E =-.857189E+02  mag=     0.0005
       N       E                     dE             d eps       ncg     rms          rms(c)
DAV:   1     0.126141293741E+04    0.10672E+04   -0.39462E+04 12056   0.310E+02    0.128E+02
RMM:   2    -0.667276141913E+04   -0.79342E+04   -0.29733E+04 14165   0.147E+02    0.375E+02
RMM:   3    -0.279542657513E+03    0.63932E+04   -0.15697E+03 10350   0.392E+01    0.254E+02
RMM:   4    -0.160436279011E+03    0.11911E+03   -0.11618E+02 11557   0.924E+00    0.306E+02
RMM:   5    -0.121880586494E+03    0.38556E+02   -0.15984E+02 10330   0.846E+00    0.296E+02
RMM:   6    -0.765323838082E+02    0.45348E+02   -0.25479E+02 10619   0.876E+00    0.153E+02
RMM:   7     0.107608286806E+03    0.18414E+03   -0.71666E+01 10407   0.637E+00    0.558E+01
RMM:   8     0.855465045766E+02   -0.22062E+02   -0.16906E+01 10275   0.326E+00    0.137E+02
RMM:   9     0.109186419384E+03    0.23640E+02   -0.19287E+01 10248   0.369E+00    0.539E+01
RMM:  10     0.129410943544E+03    0.20225E+02   -0.71179E+00 10317   0.251E+00    0.725E+01
RMM:  11     0.131647069156E+03    0.22361E+01   -0.70848E+00 10364   0.231E+00    0.940E+01
RMM:  12     0.129624341947E+03   -0.20227E+01   -0.42043E+00 10403   0.164E+00    0.125E+02
RMM:  13     0.125605789783E+03   -0.40186E+01   -0.21947E+00 10257   0.120E+00    0.164E+02
RMM:  14     0.119173178184E+03   -0.64326E+01   -0.99268E-01 10418   0.783E-01    0.183E+02
RMM:  15     0.115178487570E+03   -0.39947E+01   -0.19528E-01 10785   0.342E-01    0.193E+02
RMM:  16     0.120440428667E+03    0.52619E+01   -0.13967E-01 10051   0.332E-01    0.179E+02
RMM:  17     0.117160372489E+03   -0.32801E+01   -0.54190E-02 10249   0.201E-01    0.187E+02
RMM:  18     0.136822340454E+03    0.19662E+02   -0.42142E+00 10020   0.168E+00    0.111E+02
RMM:  19     0.138131971461E+03    0.13096E+01   -0.49833E-01 10628   0.618E-01    0.105E+02
RMM:  20     0.142766899178E+03    0.46349E+01   -0.11802E+00 10083   0.923E-01    0.715E+01
RMM:  21     0.144582955125E+03    0.18161E+01   -0.83465E-01 10011   0.796E-01    0.508E+01
RMM:  22     0.145350460659E+03    0.76751E+00   -0.30987E-01 10214   0.470E-01    0.397E+01
RMM:  23     0.146088598232E+03    0.73814E+00   -0.23555E+00 10002   0.125E+00    0.924E+00
RMM:  24     0.145697343337E+03   -0.39125E+00   -0.17644E-01 11262   0.304E-01    0.108E+01
RMM:  25     0.146014604462E+03    0.31726E+00   -0.33960E-01 10170   0.467E-01    0.176E+01
RMM:  26     0.147591921261E+03    0.15773E+01   -0.26493E-01 10146   0.385E-01    0.715E+00
RMM:  27     0.147654487800E+03    0.62567E-01   -0.70803E-02 10362   0.204E-01    0.736E+00
RMM:  28     0.147798189385E+03    0.14370E+00   -0.17239E-02 10623   0.929E-02    0.675E+00
RMM:  29     0.147929107687E+03    0.13092E+00   -0.37827E-02 10004   0.134E-01    0.601E+00
RMM:  30     0.147998286534E+03    0.69179E-01   -0.15036E-02 10348   0.846E-02    0.382E+00
RMM:  31     0.148033918857E+03    0.35632E-01   -0.15722E-02 10062   0.875E-02    0.933E-01
RMM:  32     0.148044637570E+03    0.10719E-01   -0.54135E-03  9921   0.602E-02    0.549E-01
RMM:  33     0.148048805887E+03    0.41683E-02   -0.32492E-03 10171   0.450E-02    0.133E+00
RMM:  34     0.148044988993E+03   -0.38169E-02   -0.17719E-03 10189   0.336E-02    0.240E+00
RMM:  35     0.148055678718E+03    0.10690E-01   -0.26094E-03 10035   0.423E-02    0.676E-01
RMM:  36     0.148054977091E+03   -0.70163E-03   -0.12856E-03  9896   0.263E-02    0.102E+00
RMM:  37     0.148054641005E+03   -0.33609E-03   -0.86474E-04  9417   0.223E-02    0.475E-01
RMM:  38     0.148053816195E+03   -0.82481E-03   -0.57472E-04  9065   0.158E-02    0.112E-01
RMM:  39     0.148053023208E+03   -0.79299E-03   -0.40094E-04  8628   0.114E-02    0.301E-01
RMM:  40     0.148052076237E+03   -0.94697E-03   -0.15700E-04  8229   0.836E-03    0.187E-01
RMM:  41     0.148051191235E+03   -0.88500E-03   -0.15097E-04  7972   0.900E-03    0.181E-01
RMM:  42     0.148050899939E+03   -0.29130E-03   -0.27728E-05  6594   0.403E-03    0.187E-01
RMM:  43     0.148050504399E+03   -0.39554E-03   -0.32905E-05  6230   0.378E-03    0.187E-01
RMM:  44     0.148050269589E+03   -0.23481E-03   -0.14232E-05  5957   0.243E-03    0.193E-01
RMM:  45     0.148049973867E+03   -0.29572E-03   -0.44942E-05  7163   0.462E-03    0.720E-02
RMM:  46     0.148049831902E+03   -0.14197E-03   -0.93105E-06  5931   0.224E-03    0.493E-02
RMM:  47     0.148049666582E+03   -0.16532E-03   -0.11844E-05  6071   0.244E-03    0.826E-03
RMM:  48     0.148049574111E+03   -0.92472E-04   -0.65269E-06  4962   0.161E-03    0.550E-03
RMM:  49     0.148049536606E+03   -0.37505E-04   -0.24912E-06  4123   0.111E-03    0.540E-03
RMM:  50     0.148049504837E+03   -0.31769E-04   -0.25307E-06  4587   0.117E-03    0.393E-03
RMM:  51     0.148049496673E+03   -0.81636E-05   -0.66261E-07  2916   0.752E-04
  13 F= 0.14804950E+03 E0= 0.14801093E+03  d E =-.131851E+03  mag=    -0.0034
       N       E                     dE             d eps       ncg     rms          rms(c)
DAV:   1     0.253214548884E+03    0.10517E+03   -0.65581E+03 11688   0.124E+02    0.470E+01
RMM:   2    -0.772766262930E+03   -0.10260E+04   -0.28896E+03 11397   0.507E+01    0.208E+02
RMM:   3    -0.210410887820E+02    0.75173E+03   -0.15229E+02 10309   0.119E+01    0.164E+02
RMM:   4    -0.155142562914E+02    0.55268E+01   -0.99075E+00 11660   0.279E+00    0.158E+02
RMM:   5     0.711461124532E+02    0.86660E+02   -0.65161E+00 10093   0.185E+00    0.864E+01
RMM:   6     0.763126479338E+02    0.51665E+01   -0.32315E+00 10228   0.137E+00    0.685E+01
RMM:   7     0.762594012771E+01   -0.68687E+02   -0.13819E+01 10067   0.260E+00    0.798E+01
RMM:   8     0.743759792182E+02    0.66750E+02   -0.28406E+01 10105   0.383E+00    0.770E+01
RMM:   9     0.927340138896E+02    0.18358E+02   -0.92335E+00 10181   0.263E+00    0.495E+01
RMM:  10     0.101886275120E+03    0.91523E+01   -0.26752E+00 10438   0.132E+00    0.201E+01
RMM:  11     0.101802365576E+03   -0.83910E-01   -0.13136E-01 11044   0.310E-01    0.215E+01
RMM:  12     0.103126797187E+03    0.13244E+01   -0.70932E-01 10214   0.666E-01    0.134E+01
RMM:  13     0.103644058963E+03    0.51726E+00   -0.66739E-01 10140   0.738E-01    0.901E+00
RMM:  14     0.103697602044E+03    0.53543E-01   -0.22989E-01 10409   0.413E-01    0.913E+00
RMM:  15     0.103750923020E+03    0.53321E-01   -0.13128E-01 10282   0.289E-01    0.877E+00
RMM:  16     0.103721943258E+03   -0.28980E-01   -0.52476E-02 10246   0.190E-01    0.957E+00
RMM:  17     0.103743552620E+03    0.21609E-01   -0.25038E-02 10151   0.148E-01    0.121E+01
RMM:  18     0.103726790924E+03   -0.16762E-01   -0.10208E-02  9900   0.973E-02    0.144E+01
RMM:  19     0.103695896783E+03   -0.30894E-01   -0.56914E-03  9994   0.751E-02    0.161E+01
RMM:  20     0.103693353925E+03   -0.25429E-02   -0.44334E-04 10433   0.201E-02    0.162E+01
RMM:  21     0.103726111797E+03    0.32758E-01   -0.65547E-03  9615   0.889E-02    0.137E+01
RMM:  22     0.103755673828E+03    0.29562E-01   -0.62611E-03  9633   0.836E-02    0.119E+01
RMM:  23     0.103787209375E+03    0.31536E-01   -0.10430E-02  9630   0.109E-01    0.969E+00
RMM:  24     0.103822325054E+03    0.35116E-01   -0.26396E-02  9574   0.174E-01    0.583E+00
RMM:  25     0.103848758518E+03    0.26433E-01   -0.33545E-02  9552   0.195E-01    0.274E+00
RMM:  26     0.103852758985E+03    0.40005E-02   -0.74954E-03 10114   0.883E-02    0.221E+00
RMM:  27     0.103854518962E+03    0.17600E-02   -0.30489E-03 10162   0.547E-02    0.136E+00
RMM:  28     0.103854874455E+03    0.35549E-03   -0.15514E-03  9684   0.421E-02    0.586E-01
RMM:  29     0.103854592755E+03   -0.28170E-03   -0.66400E-04 10134   0.268E-02    0.845E-02
RMM:  30     0.103854439147E+03   -0.15361E-03   -0.99042E-05  9112   0.110E-02    0.699E-02
RMM:  31     0.103854252474E+03   -0.18667E-03   -0.54476E-05  7941   0.757E-03    0.111E-01
RMM:  32     0.103854064682E+03   -0.18779E-03   -0.19039E-05  6297   0.384E-03    0.935E-02
RMM:  33     0.103853948165E+03   -0.11652E-03   -0.22833E-05  6323   0.486E-03    0.154E-02
RMM:  34     0.103853857831E+03   -0.90335E-04   -0.10091E-05  5848   0.231E-03    0.129E-02
RMM:  35     0.103853811772E+03   -0.46058E-04   -0.11616E-05  5243   0.195E-03    0.115E-02
RMM:  36     0.103853816365E+03    0.45926E-05   -0.16979E-06  3671   0.105E-03
  14 F= 0.10385382E+03 E0= 0.10383965E+03  d E =-.441957E+02  mag=     0.0036
       N       E                     dE             d eps       ncg     rms          rms(c)
DAV:   1     0.200493483495E+03    0.96640E+02   -0.52922E+03 11556   0.108E+02    0.344E+01
RMM:   2    -0.412646817720E+03   -0.61314E+03   -0.19297E+03 11066   0.411E+01    0.161E+02
RMM:   3     0.242357367323E+02    0.43688E+03   -0.89939E+01 10344   0.923E+00    0.106E+02
RMM:   4     0.192941666077E+02   -0.49416E+01   -0.66974E+00 11466   0.223E+00    0.113E+02
RMM:   5     0.310501053953E+02    0.11756E+02   -0.80697E-01 10414   0.735E-01    0.948E+01
RMM:   6     0.635719906586E+02    0.32522E+02   -0.59029E+00 10020   0.162E+00    0.594E+01
RMM:   7     0.747040392904E+02    0.11132E+02   -0.12266E+01 10105   0.249E+00    0.253E+01
RMM:   8     0.823587567045E+02    0.76547E+01   -0.58954E+00 10243   0.196E+00    0.257E+01
RMM:   9     0.813897213773E+02   -0.96904E+00   -0.32762E+00 10071   0.156E+00    0.210E+01
RMM:  10     0.852149405481E+02    0.38252E+01   -0.22381E+00 10284   0.123E+00    0.131E+01
RMM:  11     0.858681909162E+02    0.65325E+00   -0.95819E-01 10533   0.772E-01    0.803E+00
RMM:  12     0.863784901228E+02    0.51030E+00   -0.30929E-01 10334   0.433E-01    0.453E+00
RMM:  13     0.864956731447E+02    0.11718E+00   -0.79024E-02 10448   0.243E-01    0.360E+00
RMM:  14     0.864952720209E+02   -0.40112E-03   -0.31485E-02 10411   0.140E-01    0.310E+00
RMM:  15     0.865167351909E+02    0.21463E-01   -0.56575E-02 10418   0.186E-01    0.474E+00
RMM:  16     0.865568983405E+02    0.40163E-01   -0.19780E-02 10399   0.116E-01    0.518E+00
RMM:  17     0.865584835997E+02    0.15853E-02   -0.85156E-03 10569   0.751E-02    0.579E+00
RMM:  18     0.865597704609E+02    0.12869E-02   -0.36095E-03 10664   0.505E-02    0.635E+00
RMM:  19     0.865588922866E+02   -0.87817E-03   -0.12680E-03 10495   0.325E-02    0.714E+00
RMM:  20     0.865559520606E+02   -0.29402E-02   -0.76744E-04  9888   0.264E-02    0.800E+00
RMM:  21     0.865595931822E+02    0.36411E-02   -0.93290E-04  9552   0.301E-02    0.687E+00
RMM:  22     0.865635249999E+02    0.39318E-02   -0.16690E-03  9462   0.414E-02    0.549E+00
RMM:  23     0.865669202025E+02    0.33952E-02   -0.14223E-03  9463   0.380E-02    0.427E+00
RMM:  24     0.865709521514E+02    0.40319E-02   -0.50706E-03  9328   0.735E-02    0.162E+00
RMM:  25     0.865713140563E+02    0.36190E-03   -0.11840E-03  9923   0.356E-02    0.673E-01
RMM:  26     0.865714655758E+02    0.15152E-03   -0.21116E-04  9190   0.133E-02    0.445E-01
RMM:  27     0.865713534353E+02   -0.11214E-03   -0.83062E-05  7929   0.799E-03    0.317E-01
RMM:  28     0.865711824380E+02   -0.17100E-03   -0.60337E-05  6556   0.552E-03    0.341E-01
RMM:  29     0.865711308264E+02   -0.51612E-04   -0.17150E-05  6164   0.314E-03    0.325E-01
RMM:  30     0.865712586595E+02    0.12783E-03   -0.14776E-04  6590   0.799E-03    0.187E-01
RMM:  31     0.865713426542E+02    0.83995E-04   -0.20409E-04  7120   0.110E-02    0.789E-02
RMM:  32     0.865711575760E+02   -0.18508E-03   -0.30445E-05  6550   0.464E-03    0.295E-02
RMM:  33     0.865709052388E+02   -0.25234E-03   -0.13626E-05  6134   0.274E-03    0.377E-02
RMM:  34     0.865706734183E+02   -0.23182E-03   -0.13360E-05  5897   0.213E-03    0.527E-02
RMM:  35     0.865705090103E+02   -0.16441E-03   -0.10702E-05  5983   0.223E-03    0.325E-02
RMM:  36     0.865703889811E+02   -0.12003E-03   -0.14061E-05  5723   0.187E-03    0.634E-03
RMM:  37     0.865703342225E+02   -0.54759E-04   -0.44510E-06  4417   0.125E-03    0.384E-03
RMM:  38     0.865702855256E+02   -0.48697E-04   -0.23915E-06  4594   0.118E-03    0.332E-03
RMM:  39     0.865702523057E+02   -0.33220E-04   -0.23398E-06  4273   0.109E-03    0.227E-03
RMM:  40     0.865702422782E+02   -0.10027E-04   -0.52781E-07  3161   0.789E-04    0.225E-03
RMM:  41     0.865702244333E+02   -0.17845E-04   -0.92524E-07  3630   0.871E-04    0.174E-03
RMM:  42     0.865702185357E+02   -0.58976E-05   -0.28791E-07  2496   0.666E-04
  15 F= 0.86570219E+02 E0= 0.86559680E+02  d E =-.614793E+02  mag=     0.0049
       N       E                     dE             d eps       ncg     rms          rms(c)
DAV:   1     0.545012298133E+03    0.45844E+03   -0.18591E+04 11476   0.219E+02    0.823E+01
RMM:   2    -0.336966319023E+04   -0.39147E+04   -0.11656E+04 13086   0.948E+01    0.320E+02
RMM:   3    -0.675710644691E+02    0.33021E+04   -0.83358E+02 11157   0.235E+01    0.692E+01
RMM:   4    -0.222886290151E+03   -0.15532E+03   -0.31226E+02 10385   0.119E+01    0.856E+01
RMM:   5    -0.468792452103E+02    0.17601E+03   -0.13966E+02 10689   0.905E+00    0.111E+02
RMM:   6     0.639832319758E+02    0.11086E+03   -0.22234E+01 10413   0.375E+00    0.715E+01
RMM:   7     0.793361598145E+02    0.15353E+02   -0.30343E+00 10659   0.142E+00    0.530E+01
RMM:   8     0.857337097201E+02    0.63975E+01   -0.20773E+00 10290   0.917E-01    0.433E+01
RMM:   9     0.891939919395E+02    0.34603E+01   -0.57411E+00 10013   0.199E+00    0.240E+01
RMM:  10     0.772660215970E+02   -0.11928E+02   -0.70030E+00 10406   0.198E+00    0.714E+01
RMM:  11     0.746310190634E+02   -0.26350E+01   -0.19455E+00 10449   0.107E+00    0.756E+01
RMM:  12     0.723055383894E+02   -0.23255E+01   -0.26967E-01 10667   0.437E-01    0.747E+01
RMM:  13     0.717918265904E+02   -0.51371E+00   -0.28336E-02 10768   0.130E-01    0.768E+01
RMM:  14     0.870942163977E+02    0.15302E+02   -0.89092E+00  9770   0.241E+00    0.300E+01
RMM:  15     0.896652639629E+02    0.25710E+01   -0.31755E+00 10338   0.146E+00    0.433E+01
RMM:  16     0.924586634947E+02    0.27934E+01   -0.13060E+00 10094   0.899E-01    0.331E+01
RMM:  17     0.932582275318E+02    0.79956E+00   -0.23737E-01 10410   0.404E-01    0.250E+01
RMM:  18     0.939084796372E+02    0.65025E+00   -0.32947E-01  9857   0.439E-01    0.154E+01
RMM:  19     0.941567139415E+02    0.24823E+00   -0.28921E-01  9962   0.408E-01    0.111E+01
RMM:  20     0.943183990573E+02    0.16169E+00   -0.19951E-01 10153   0.353E-01    0.359E+00
RMM:  21     0.943243675912E+02    0.59685E-02   -0.10232E-01 10224   0.256E-01    0.217E+00
RMM:  22     0.943514448508E+02    0.27077E-01   -0.12465E-02 10631   0.878E-02    0.130E+00
RMM:  23     0.943512466843E+02   -0.19817E-03   -0.15473E-02  9737   0.816E-02    0.252E+00
RMM:  24     0.943697353630E+02    0.18489E-01   -0.58867E-03  9789   0.388E-02    0.191E+00
RMM:  25     0.943529540697E+02   -0.16781E-01   -0.37388E-03  9225   0.330E-02    0.247E+00
RMM:  26     0.943381970128E+02   -0.14757E-01   -0.10829E-02  9205   0.518E-02    0.299E+00
RMM:  27     0.943340435614E+02   -0.41535E-02   -0.23125E-02  9283   0.804E-02    0.359E+00
RMM:  28     0.943492066006E+02    0.15163E-01   -0.54125E-03  9942   0.526E-02    0.237E+00
RMM:  29     0.943499978028E+02    0.79120E-03   -0.10812E-03 10229   0.280E-02    0.223E+00
RMM:  30     0.943581975019E+02    0.81997E-02   -0.22804E-03  9908   0.333E-02    0.106E+00
RMM:  31     0.943598178675E+02    0.16204E-02   -0.72696E-04  9441   0.175E-02    0.571E-01
RMM:  32     0.943603035480E+02    0.48568E-03   -0.46653E-04  9678   0.166E-02    0.179E-01
RMM:  33     0.943596498531E+02   -0.65369E-03   -0.96569E-04  9561   0.215E-02    0.499E-01
RMM:  34     0.943599890270E+02    0.33917E-03   -0.14301E-04  8433   0.101E-02    0.174E-01
RMM:  35     0.943600304811E+02    0.41454E-04   -0.65876E-05  7517   0.642E-03    0.985E-02
RMM:  36     0.943600117645E+02   -0.18717E-04   -0.25196E-05  6508   0.403E-03    0.399E-02
RMM:  37     0.943599887101E+02   -0.23054E-04   -0.10748E-05  5880   0.304E-03    0.146E-02
RMM:  38     0.943599560703E+02   -0.32640E-04   -0.62047E-06  5780   0.222E-03    0.231E-02
RMM:  39     0.943599094427E+02   -0.46628E-04   -0.71906E-06  5875   0.216E-03    0.961E-03
RMM:  40     0.943598871495E+02   -0.22293E-04   -0.26882E-06  5187   0.150E-03    0.322E-02
RMM:  41     0.943598582556E+02   -0.28894E-04   -0.26919E-06  5126   0.151E-03    0.283E-02
RMM:  42     0.943598440550E+02   -0.14201E-04   -0.10493E-06  4108   0.109E-03    0.212E-02
RMM:  43     0.943598332147E+02   -0.10840E-04   -0.76043E-07  4515   0.110E-03    0.561E-03
RMM:  44     0.943598236614E+02   -0.95533E-05   -0.78421E-07  4079   0.106E-03
  16 F= 0.94359824E+02 E0= 0.94350216E+02  d E =-.536897E+02  mag=     0.0002
       N       E                     dE             d eps       ncg     rms          rms(c)
DAV:   1     0.291905184233E+03    0.19755E+03   -0.89860E+03 11352   0.140E+02    0.359E+01
RMM:   2    -0.121695275413E+04   -0.15089E+04   -0.44018E+03 11962   0.573E+01    0.222E+02
RMM:   3    -0.908165855920E+02    0.11261E+04   -0.16738E+02 10522   0.119E+01    0.729E+01
RMM:   4     0.477236773849E+02    0.13854E+03   -0.44795E+01 10185   0.509E+00    0.668E+01
RMM:   5     0.626395688226E+02    0.14916E+02   -0.11844E+01 10301   0.257E+00    0.433E+01
RMM:   6     0.737053692323E+02    0.11066E+02   -0.10628E+01 10230   0.238E+00    0.275E+01
RMM:   7     0.816085738572E+02    0.79032E+01   -0.48800E+00 10119   0.187E+00    0.143E+01
RMM:   8     0.801375033597E+02   -0.14711E+01   -0.40239E+00 10328   0.159E+00    0.256E+01
RMM:   9     0.789996650438E+02   -0.11378E+01   -0.72831E-01 10512   0.714E-01    0.363E+01
RMM:  10     0.791679179077E+02    0.16825E+00   -0.51952E-02 11250   0.172E-01    0.356E+01
RMM:  11     0.825454452817E+02    0.33775E+01   -0.10943E+00 10151   0.779E-01    0.155E+01
RMM:  12     0.827657285321E+02    0.22028E+00   -0.73007E-01 10300   0.719E-01    0.165E+01
RMM:  13     0.814063982778E+02   -0.13593E+01   -0.35182E-01  9976   0.512E-01    0.352E+01
RMM:  14     0.831212347259E+02    0.17148E+01   -0.62032E-01  9609   0.693E-01    0.903E+00
RMM:  15     0.828664859832E+02   -0.25475E+00   -0.14979E+00  9757   0.104E+00    0.173E+01
RMM:  16     0.833607648615E+02    0.49428E+00   -0.22418E-01 10449   0.459E-01    0.734E+00
RMM:  17     0.834429716664E+02    0.82207E-01   -0.83400E-02 10090   0.241E-01    0.365E+00
RMM:  18     0.834688092602E+02    0.25838E-01   -0.32192E-02 10487   0.153E-01    0.309E+00
RMM:  19     0.834824647355E+02    0.13655E-01   -0.48120E-03 10565   0.567E-02    0.190E+00
RMM:  20     0.834863145770E+02    0.38498E-02   -0.61647E-03 10322   0.645E-02    0.936E-01
RMM:  21     0.834888828350E+02    0.25683E-02   -0.35846E-03 10273   0.497E-02    0.770E-01
RMM:  22     0.834893695672E+02    0.48673E-03   -0.77984E-04 10197   0.225E-02    0.590E-01
RMM:  23     0.834879903549E+02   -0.13792E-02   -0.18031E-03  9754   0.334E-02    0.872E-01
RMM:  24     0.834903231311E+02    0.23328E-02   -0.13477E-03  9858   0.313E-02    0.517E-01
RMM:  25     0.834906067356E+02    0.28360E-03   -0.30564E-04  8973   0.155E-02    0.216E-01
RMM:  26     0.834907577527E+02    0.15102E-03   -0.11425E-04  7838   0.906E-03    0.131E-01
RMM:  27     0.834907941954E+02    0.36443E-04   -0.70126E-05  7444   0.680E-03    0.836E-02
RMM:  28     0.834907949361E+02    0.74063E-06   -0.17171E-05  6207   0.351E-03
  17 F= 0.83490795E+02 E0= 0.83478803E+02  d E =-.645587E+02  mag=    -0.0038
       N       E                     dE             d eps       ncg     rms          rms(c)
DAV:   1     0.677805202216E+02   -0.15710E+02   -0.10153E+03 11512   0.458E+01    0.189E+01
RMM:   2     0.238336760729E+02   -0.43947E+02   -0.16754E+02 10744   0.146E+01    0.638E+01
RMM:   3     0.350461991642E+02    0.11213E+02   -0.10583E+01 10408   0.314E+00    0.648E+01
RMM:   4     0.460049904905E+02    0.10959E+02   -0.23042E+00 10444   0.114E+00    0.479E+01
RMM:   5     0.390502439509E+02   -0.69547E+01   -0.91335E-01 10196   0.721E-01    0.578E+01
RMM:   6     0.384619463914E+02   -0.58830E+00   -0.46622E+00 10127   0.151E+00    0.594E+01
RMM:   7     0.279202249011E+02   -0.10542E+02   -0.21929E+00 10197   0.112E+00    0.674E+01
RMM:   8     0.460772529424E+02    0.18157E+02   -0.25112E+00 10423   0.112E+00    0.380E+01
RMM:   9     0.528300807006E+02    0.67528E+01   -0.86756E-01 10472   0.710E-01    0.110E+01
RMM:  10     0.540538819209E+02    0.12238E+01   -0.20204E-01 10976   0.283E-01    0.798E+00
RMM:  11     0.541873905960E+02    0.13351E+00   -0.14386E-02 11003   0.951E-02    0.780E+00
RMM:  12     0.544283720388E+02    0.24098E+00   -0.55082E-02 10070   0.174E-01    0.604E+00
RMM:  13     0.547141586648E+02    0.28579E+00   -0.18854E-01 10140   0.303E-01    0.335E+00
RMM:  14     0.547920182902E+02    0.77860E-01   -0.13633E-01 10224   0.286E-01    0.182E+00
RMM:  15     0.548051580518E+02    0.13140E-01   -0.33048E-02 10417   0.157E-01    0.128E+00
RMM:  16     0.548006074234E+02   -0.45506E-02   -0.19311E-02 10301   0.120E-01    0.124E+00
RMM:  17     0.548028296904E+02    0.22223E-02   -0.79839E-03 10369   0.785E-02    0.136E+00
RMM:  18     0.548163815933E+02    0.13552E-01   -0.58636E-03 10135   0.620E-02    0.570E-01
RMM:  19     0.548178576934E+02    0.14761E-02   -0.14184E-03 10327   0.294E-02    0.363E-01
RMM:  20     0.548191439783E+02    0.12863E-02   -0.99816E-04  9975   0.233E-02    0.172E-01
RMM:  21     0.548191175908E+02   -0.26387E-04   -0.14796E-04  8111   0.909E-03    0.113E-01
RMM:  22     0.548191435096E+02    0.25919E-04   -0.64316E-05  6653   0.546E-03    0.105E-01
RMM:  23     0.548192297253E+02    0.86216E-04   -0.13732E-04  6736   0.712E-03    0.939E-02
RMM:  24     0.548192277792E+02   -0.19461E-05   -0.11408E-04  7113   0.729E-03    0.847E-02
RMM:  25     0.548192521611E+02    0.24382E-04   -0.11105E-04  8011   0.886E-03    0.378E-02
RMM:  26     0.548192359615E+02   -0.16200E-04   -0.14599E-05  6258   0.389E-03    0.161E-02
RMM:  27     0.548192199092E+02   -0.16052E-04   -0.27605E-06  5483   0.185E-03    0.859E-03
RMM:  28     0.548192049870E+02   -0.14922E-04   -0.12785E-06  4126   0.111E-03    0.618E-03
RMM:  29     0.548191848393E+02   -0.20148E-04   -0.12047E-06  3783   0.973E-04    0.417E-03
RMM:  30     0.548191644333E+02   -0.20406E-04   -0.11899E-06  3214   0.853E-04    0.381E-03
RMM:  31     0.548191391182E+02   -0.25315E-04   -0.23664E-06  3504   0.925E-04    0.237E-03
RMM:  32     0.548191285897E+02   -0.10529E-04   -0.92920E-07  2831   0.799E-04    0.270E-03
RMM:  33     0.548191179737E+02   -0.10616E-04   -0.80095E-07  2992   0.790E-04    0.164E-03
RMM:  34     0.548191106315E+02   -0.73421E-05   -0.58580E-07  2630   0.732E-04
  18 F= 0.54819111E+02 E0= 0.54818320E+02  d E =-.286717E+02  mag=    -0.0019
       N       E                     dE             d eps       ncg     rms          rms(c)
DAV:   1     0.213079899980E+03    0.15826E+03   -0.90022E+03 11648   0.155E+02    0.486E+01
RMM:   2    -0.115414974004E+04   -0.13672E+04   -0.36863E+03 11594   0.594E+01    0.224E+02
RMM:   3    -0.140307182893E+03    0.10138E+04   -0.19795E+02 10395   0.139E+01    0.191E+02
RMM:   4    -0.130869082618E+03    0.94381E+01   -0.13317E+01 11654   0.329E+00    0.179E+02
RMM:   5    -0.429531212137E+02    0.87916E+02   -0.13004E+01 10123   0.257E+00    0.121E+02
RMM:   6    -0.638020772320E+02   -0.20849E+02   -0.14712E+01 10348   0.245E+00    0.970E+01
RMM:   7     0.721117748530E+00    0.64523E+02   -0.13537E+01 10111   0.286E+00    0.612E+01
RMM:   8    -0.822677279561E+01   -0.89479E+01   -0.82417E+00 10167   0.229E+00    0.779E+01
RMM:   9    -0.839571885590E-01    0.81428E+01   -0.12303E+01 10103   0.278E+00    0.810E+01
RMM:  10     0.571345947002E+01    0.57974E+01   -0.30005E+00 10186   0.158E+00    0.727E+01
RMM:  11     0.173843615300E+02    0.11671E+02   -0.34681E+00 10315   0.143E+00    0.346E+01
RMM:  12     0.182035033067E+02    0.81914E+00   -0.51779E-01 10659   0.564E-01    0.330E+01
RMM:  13     0.180485700203E+02   -0.15493E+00   -0.66632E-02 10520   0.224E-01    0.372E+01
RMM:  14     0.182238676667E+02    0.17530E+00   -0.11638E+00 10097   0.794E-01    0.356E+01
RMM:  15     0.181486364572E+02   -0.75231E-01   -0.58272E-01 10511   0.619E-01    0.410E+01
RMM:  16     0.177668488197E+02   -0.38179E+00   -0.12451E-01 10857   0.272E-01    0.470E+01
RMM:  17     0.176082066481E+02   -0.15864E+00   -0.22037E-02 10712   0.122E-01    0.488E+01
RMM:  18     0.167743327400E+02   -0.83387E+00   -0.17863E-01  9810   0.351E-01    0.576E+01
RMM:  19     0.170886475978E+02    0.31431E+00   -0.13500E-02 10221   0.118E-01    0.541E+01
RMM:  20     0.176576754008E+02    0.56903E+00   -0.82551E-02  9591   0.233E-01    0.483E+01
RMM:  21     0.192149820761E+02    0.15573E+01   -0.13446E+00  9690   0.978E-01    0.225E+01
RMM:  22     0.194526013269E+02    0.23762E+00   -0.27685E-01 10269   0.418E-01    0.161E+01
RMM:  23     0.195488962449E+02    0.96295E-01   -0.83414E-02 10061   0.257E-01    0.101E+01
RMM:  24     0.196016318545E+02    0.52736E-01   -0.11353E-01  9756   0.296E-01    0.296E+00
RMM:  25     0.196180669726E+02    0.16435E-01   -0.35915E-02 10248   0.165E-01    0.119E+00
RMM:  26     0.196183318258E+02    0.26485E-03   -0.53486E-03 10393   0.673E-02    0.835E-01
RMM:  27     0.196207433863E+02    0.24116E-02   -0.32615E-03 10132   0.481E-02    0.317E-01
RMM:  28     0.196209008951E+02    0.15751E-03   -0.70932E-04  9922   0.229E-02    0.268E-01
RMM:  29     0.196212053361E+02    0.30444E-03   -0.13225E-04  7824   0.889E-03    0.310E-01
RMM:  30     0.196215462882E+02    0.34095E-03   -0.32927E-04  8216   0.130E-02    0.277E-01
RMM:  31     0.196210354451E+02   -0.51084E-03   -0.52813E-04  8615   0.160E-02    0.215E-01
RMM:  32     0.196208133984E+02   -0.22205E-03   -0.30606E-04  8347   0.124E-02    0.200E-01
RMM:  33     0.196205325677E+02   -0.28083E-03   -0.16730E-04  7913   0.918E-03    0.277E-01
RMM:  34     0.196201934195E+02   -0.33915E-03   -0.10799E-04  7413   0.759E-03    0.155E-01
RMM:  35     0.196198252339E+02   -0.36819E-03   -0.84101E-05  6919   0.598E-03    0.338E-02
RMM:  36     0.196195710039E+02   -0.25423E-03   -0.27060E-05  6412   0.395E-03    0.203E-02
RMM:  37     0.196192771245E+02   -0.29388E-03   -0.27039E-05  6370   0.289E-03    0.469E-02
RMM:  38     0.196190511275E+02   -0.22600E-03   -0.18087E-05  5917   0.234E-03    0.117E-02
RMM:  39     0.196189010926E+02   -0.15003E-03   -0.11338E-05  5866   0.210E-03    0.147E-02
RMM:  40     0.196187915906E+02   -0.10950E-03   -0.79944E-06  5405   0.180E-03    0.395E-03
RMM:  41     0.196187616119E+02   -0.29979E-04   -0.15799E-06  3935   0.117E-03    0.590E-03
RMM:  42     0.196187265753E+02   -0.35037E-04   -0.12956E-06  4228   0.112E-03    0.552E-03
RMM:  43     0.196187112533E+02   -0.15322E-04   -0.67324E-07  3257   0.830E-04    0.232E-03
RMM:  44     0.196187066539E+02   -0.45994E-05   -0.29552E-07  2737   0.714E-04
  19 F= 0.19618707E+02 E0= 0.19621608E+02  d E =-.638721E+02  mag=    -0.0009
       N       E                     dE             d eps       ncg     rms          rms(c)
DAV:   1     0.111262155366E+02   -0.84925E+01   -0.11540E+03 11416   0.486E+01    0.155E+01
RMM:   2    -0.173636728436E+02   -0.28490E+02   -0.17379E+02 10684   0.149E+01    0.435E+01
RMM:   3    -0.118273703104E+02    0.55363E+01   -0.85548E+00 10709   0.285E+00    0.442E+01
RMM:   4    -0.486645352485E+01    0.69609E+01   -0.22318E+00 10359   0.112E+00    0.170E+01
RMM:   5    -0.107498690549E+02   -0.58834E+01   -0.24124E+00 10123   0.104E+00    0.253E+01
RMM:   6    -0.813368336222E+01    0.26162E+01   -0.36922E+00 10097   0.133E+00    0.190E+01
RMM:   7    -0.323529718607E+01    0.48984E+01   -0.22639E+00 10293   0.111E+00    0.647E+00
RMM:   8    -0.232986581430E+01    0.90543E+00   -0.73005E-01 10547   0.643E-01    0.310E+00
RMM:   9    -0.229289028840E+01    0.36976E-01   -0.21930E-01 10327   0.361E-01    0.356E+00
RMM:  10    -0.222130286583E+01    0.71587E-01   -0.60804E-02 10483   0.196E-01    0.226E+00
RMM:  11    -0.220100892652E+01    0.20294E-01   -0.32304E-02 10309   0.144E-01    0.101E+00
RMM:  12    -0.220140566980E+01   -0.39674E-03   -0.21335E-02 10282   0.116E-01    0.159E+00
RMM:  13    -0.219181898775E+01    0.95867E-02   -0.52683E-03 10348   0.604E-02    0.939E-01
RMM:  14    -0.218821318896E+01    0.36058E-02   -0.27503E-03 10324   0.442E-02    0.274E-01
RMM:  15    -0.218743049831E+01    0.78269E-03   -0.71183E-04  9616   0.216E-02    0.107E-01
RMM:  16    -0.218736958262E+01    0.60916E-04   -0.13682E-04  8793   0.947E-03    0.108E-01
RMM:  17    -0.218731914839E+01    0.50434E-04   -0.59791E-05  7951   0.687E-03    0.672E-02
RMM:  18    -0.218730711384E+01    0.12035E-04   -0.28526E-05  7093   0.483E-03    0.478E-02
RMM:  19    -0.218732427276E+01   -0.17159E-04   -0.12642E-05  5991   0.321E-03    0.702E-02
RMM:  20    -0.218732978578E+01   -0.55130E-05   -0.83345E-06  5842   0.244E-03
  20 F= -.21873298E+01 E0= -.21844832E+01  d E =-.218060E+02  mag=     0.0008
       N       E                     dE             d eps       ncg     rms          rms(c)
DAV:   1     0.209779077914E+01    0.42851E+01   -0.11252E+03 11384   0.479E+01    0.151E+01
RMM:   2    -0.221340591825E+02   -0.24232E+02   -0.16755E+02 10677   0.146E+01    0.378E+01
RMM:   3    -0.202654587199E+02    0.18686E+01   -0.81663E+00 10737   0.275E+00    0.431E+01
RMM:   4    -0.135832352007E+02    0.66822E+01   -0.18222E+00 10397   0.104E+00    0.158E+01
RMM:   5    -0.221145702863E+02   -0.85313E+01   -0.28149E+00 10081   0.110E+00    0.282E+01
RMM:   6    -0.172896230865E+02    0.48249E+01   -0.36663E+00 10174   0.133E+00    0.222E+01
RMM:   7    -0.126973593693E+02    0.45923E+01   -0.18499E+00 10338   0.975E-01    0.828E+00
RMM:   8    -0.115261962988E+02    0.11712E+01   -0.61645E-01 10487   0.566E-01    0.442E+00
RMM:   9    -0.114225884595E+02    0.10361E+00   -0.14998E-01 10419   0.290E-01    0.333E+00
RMM:  10    -0.113404858917E+02    0.82103E-01   -0.46913E-02 10388   0.162E-01    0.149E+00
RMM:  11    -0.113407603928E+02   -0.27450E-03   -0.27723E-02 10390   0.127E-01    0.164E+00
RMM:  12    -0.113380561829E+02    0.27042E-02   -0.29216E-02 10174   0.133E-01    0.184E+00
RMM:  13    -0.113237366446E+02    0.14320E-01   -0.11773E-02 10370   0.879E-02    0.946E-01
RMM:  14    -0.113185342080E+02    0.52024E-02   -0.37473E-03 10465   0.480E-02    0.333E-01
RMM:  15    -0.113178561256E+02    0.67808E-03   -0.51349E-04  9487   0.184E-02    0.213E-01
RMM:  16    -0.113179452478E+02   -0.89122E-04   -0.19976E-04  9053   0.115E-02    0.267E-01
RMM:  17    -0.113175873078E+02    0.35794E-03   -0.36055E-04  8911   0.147E-02    0.109E-01
RMM:  18    -0.113174893390E+02    0.97969E-04   -0.10919E-04  8160   0.880E-03    0.939E-02
RMM:  19    -0.113174853661E+02    0.39729E-05   -0.23663E-05  6274   0.397E-03
  21 F= -.11317485E+02 E0= -.11319322E+02  d E =-.309362E+02  mag=     0.0049
       N       E                     dE             d eps       ncg     rms          rms(c)
DAV:   1    -0.105793476410E+02    0.73814E+00   -0.14647E+02 11464   0.168E+01    0.541E+00
RMM:   2    -0.128048808398E+02   -0.22255E+01   -0.18329E+01 10648   0.492E+00    0.784E+00
RMM:   3    -0.127341981405E+02    0.70683E-01   -0.10002E+00 10978   0.880E-01    0.643E+00
RMM:   4    -0.132008287561E+02   -0.46663E+00   -0.21715E-01 10042   0.329E-01    0.146E+01
RMM:   5    -0.124433908591E+02    0.75744E+00   -0.13037E-01 10387   0.254E-01    0.469E+00
RMM:   6    -0.129027679226E+02   -0.45938E+00   -0.50828E-01 10090   0.494E-01    0.652E+00
RMM:   7    -0.122841693253E+02    0.61860E+00   -0.26447E-01 10257   0.372E-01    0.426E+00
RMM:   8    -0.121370395800E+02    0.14713E+00   -0.73225E-02 10468   0.198E-01    0.221E+00
RMM:   9    -0.121018861315E+02    0.35153E-01   -0.18685E-02 10370   0.989E-02    0.969E-01
RMM:  10    -0.120987206408E+02    0.31655E-02   -0.45381E-03 10328   0.565E-02    0.825E-01
RMM:  11    -0.120956892574E+02    0.30314E-02   -0.25912E-03  9902   0.386E-02    0.430E-01
RMM:  12    -0.120943684315E+02    0.13208E-02   -0.98171E-04  9779   0.263E-02    0.183E-01
RMM:  13    -0.120941964159E+02    0.17202E-03   -0.23102E-04  8146   0.121E-02    0.226E-01
RMM:  14    -0.120939198617E+02    0.27655E-03   -0.14458E-04  7359   0.745E-03    0.211E-01
RMM:  15    -0.120940946520E+02   -0.17479E-03   -0.25420E-05  6102   0.378E-03    0.229E-01
RMM:  16    -0.120942877135E+02   -0.19306E-03   -0.12848E-03  7563   0.193E-02    0.108E-01
RMM:  17    -0.120943637176E+02   -0.76004E-04   -0.32803E-04  7998   0.123E-02    0.137E-01
RMM:  18    -0.120943388811E+02    0.24836E-04   -0.46093E-05  7574   0.628E-03    0.858E-02
RMM:  19    -0.120943517598E+02   -0.12879E-04   -0.16245E-05  6285   0.352E-03    0.674E-02
RMM:  20    -0.120943689405E+02   -0.17181E-04   -0.59698E-06  5727   0.245E-03    0.438E-02
RMM:  21    -0.120943896907E+02   -0.20750E-04   -0.42263E-06  5672   0.186E-03    0.258E-02
RMM:  22    -0.120944077731E+02   -0.18082E-04   -0.23442E-06  4450   0.124E-03    0.133E-02
RMM:  23    -0.120944266040E+02   -0.18831E-04   -0.16332E-06  4330   0.108E-03    0.737E-03
RMM:  24    -0.120944466394E+02   -0.20035E-04   -0.15049E-06  3845   0.919E-04    0.226E-03
RMM:  25    -0.120944613143E+02   -0.14675E-04   -0.95176E-07  3064   0.794E-04    0.305E-03
RMM:  26    -0.120944737045E+02   -0.12390E-04   -0.83212E-07  2971   0.784E-04    0.455E-03
RMM:  27    -0.120944812582E+02   -0.75538E-05   -0.55091E-07  2644   0.741E-04
  22 F= -.12094481E+02 E0= -.12102141E+02  d E =-.317132E+02  mag=     0.0013
       N       E                     dE             d eps       ncg     rms          rms(c)
DAV:   1    -0.194277126288E+02   -0.73332E+01   -0.35577E+02 11400   0.267E+01    0.775E+00
RMM:   2    -0.286921754462E+02   -0.92645E+01   -0.42524E+01 10652   0.758E+00    0.285E+01
[...]
DAV:   1    -0.254766653874E+03    0.12232E-02   -0.10014E+00  9584   0.125E+00    0.292E-01
RMM:   2    -0.254813531651E+03   -0.46878E-01   -0.88060E-02 10450   0.359E-01    0.340E+00
RMM:   3    -0.254774739999E+03    0.38792E-01   -0.37992E-03 10874   0.574E-02    0.535E-01
RMM:   4    -0.254774489272E+03    0.25073E-03   -0.26217E-03  9483   0.372E-02    0.448E-01
RMM:   5    -0.254779875759E+03   -0.53865E-02   -0.16649E-03  9232   0.244E-02    0.636E-01
RMM:   6    -0.254773223702E+03    0.66521E-02   -0.10339E-03  9356   0.208E-02    0.149E-01
RMM:   7    -0.254773574709E+03   -0.35101E-03   -0.40714E-04  8987   0.130E-02    0.299E-01
RMM:   8    -0.254772948795E+03    0.62591E-03   -0.18938E-04  8403   0.986E-03    0.937E-02
RMM:   9    -0.254772905322E+03    0.43474E-04   -0.57293E-05  7875   0.635E-03    0.583E-02
RMM:  10    -0.254772889055E+03    0.16267E-04   -0.20042E-05  6709   0.366E-03    0.248E-02
RMM:  11    -0.254772884688E+03    0.43661E-05   -0.54180E-06  5528   0.248E-03
 187 F= -.25477288E+03 E0= -.25475354E+03  d E =-.644535E-01  mag=     0.0000
       N       E                     dE             d eps       ncg     rms          rms(c)
DAV:   1    -0.254697538321E+03    0.75351E-01   -0.14863E+01 10016   0.499E+00    0.962E-01
RMM:   2    -0.254866855148E+03   -0.16932E+00   -0.15270E+00 10747   0.148E+00    0.227E+00
RMM:   3    -0.254980803644E+03   -0.11395E+00   -0.58474E-02 11138   0.218E-01    0.663E+00
RMM:   4    -0.254887456909E+03    0.93347E-01   -0.25196E-02  9838   0.117E-01    0.124E+00
RMM:   5    -0.254844592301E+03    0.42865E-01   -0.19362E-02  9692   0.862E-02    0.118E+00
RMM:   6    -0.254828063854E+03    0.16528E-01   -0.94036E-03  9862   0.681E-02    0.808E-01
RMM:   7    -0.254827848345E+03    0.21551E-03   -0.42614E-03  9581   0.416E-02    0.871E-01
RMM:   8    -0.254822660304E+03    0.51880E-02   -0.24092E-03  9897   0.385E-02    0.251E-01
RMM:   9    -0.254822272522E+03    0.38778E-03   -0.75119E-04  9709   0.232E-02    0.173E-01
RMM:  10    -0.254822174861E+03    0.97661E-04   -0.24664E-04  8921   0.122E-02    0.147E-01
RMM:  11    -0.254822066612E+03    0.10825E-03   -0.69668E-05  8010   0.757E-03    0.865E-02
RMM:  12    -0.254822048070E+03    0.18542E-04   -0.23745E-05  7273   0.414E-03    0.553E-02
RMM:  13    -0.254822044307E+03    0.37631E-05   -0.71575E-06  5358   0.269E-03
 188 F= -.25482204E+03 E0= -.25480325E+03  d E =-.491596E-01  mag=     0.0000
       N       E                     dE             d eps       ncg     rms          rms(c)
DAV:   1    -0.254813307391E+03    0.87407E-02   -0.19237E+00  9728   0.179E+00    0.346E-01
RMM:   2    -0.254837491159E+03   -0.24184E-01   -0.19769E-01 10318   0.534E-01    0.108E+00
RMM:   3    -0.254843135681E+03   -0.56445E-02   -0.71448E-03 11053   0.768E-02    0.198E+00
RMM:   4    -0.254838779551E+03    0.43561E-02   -0.38391E-03  9720   0.446E-02    0.484E-01
RMM:   5    -0.254832011294E+03    0.67683E-02   -0.24757E-03  9393   0.310E-02    0.408E-01
RMM:   6    -0.254830095597E+03    0.19157E-02   -0.12061E-03  9273   0.243E-02    0.279E-01
RMM:   7    -0.254830220337E+03   -0.12474E-03   -0.56603E-04  9065   0.151E-02    0.319E-01
RMM:   8    -0.254829480274E+03    0.74006E-03   -0.31111E-04  8964   0.137E-02    0.102E-01
RMM:   9    -0.254829426910E+03    0.53364E-04   -0.95312E-05  8180   0.842E-03    0.726E-02
RMM:  10    -0.254829406497E+03    0.20413E-04   -0.31010E-05  7500   0.450E-03    0.457E-02
RMM:  11    -0.254829395575E+03    0.10922E-04   -0.78664E-06  5678   0.292E-03    0.233E-02
RMM:  12    -0.254829394408E+03    0.11666E-05   -0.30084E-06  4505   0.173E-03
 189 F= -.25482939E+03 E0= -.25481080E+03  d E =-.565097E-01  mag=     0.0000
       N       E                     dE             d eps       ncg     rms          rms(c)
DAV:   1    -0.254678770764E+03    0.15062E+00   -0.20346E+01 10416   0.595E+00    0.110E+00
RMM:   2    -0.254944754169E+03   -0.26598E+00   -0.23323E+00 10770   0.183E+00    0.270E+00
RMM:   3    -0.255072347767E+03   -0.12759E+00   -0.92749E-02 11039   0.270E-01    0.703E+00
RMM:   4    -0.255003549475E+03    0.68798E-01   -0.35027E-02  9754   0.129E-01    0.228E+00
RMM:   5    -0.254905511481E+03    0.98038E-01   -0.28727E-02  9726   0.108E-01    0.101E+00
RMM:   6    -0.254888540483E+03    0.16971E-01   -0.11482E-02  9939   0.715E-02    0.112E+00
RMM:   7    -0.254882289826E+03    0.62507E-02   -0.44398E-03  9724   0.459E-02    0.530E-01
RMM:   8    -0.254879930483E+03    0.23593E-02   -0.23516E-03  9788   0.395E-02    0.281E-01
RMM:   9    -0.254879762578E+03    0.16790E-03   -0.98996E-04  9507   0.248E-02    0.141E-01
RMM:  10    -0.254879507218E+03    0.25536E-03   -0.31772E-04  9266   0.142E-02    0.162E-01
RMM:  11    -0.254879484187E+03    0.23031E-04   -0.71331E-05  7949   0.743E-03    0.148E-01
RMM:  12    -0.254879415703E+03    0.68484E-04   -0.27529E-05  7364   0.456E-03    0.637E-02
RMM:  13    -0.254879400555E+03    0.15148E-04   -0.80335E-06  5684   0.280E-03    0.140E-02
RMM:  14    -0.254879400235E+03    0.31944E-06   -0.29577E-06  4864   0.181E-03
 190 F= -.25487940E+03 E0= -.25486141E+03  d E =-.500058E-01  mag=     0.0000
       N       E                     dE             d eps       ncg     rms          rms(c)
DAV:   1    -0.254856324835E+03    0.23076E-01   -0.33035E+00  9976   0.240E+00    0.442E-01
RMM:   2    -0.254897758238E+03   -0.41433E-01   -0.37769E-01 10274   0.733E-01    0.825E-01
RMM:   3    -0.254927009497E+03   -0.29251E-01   -0.16007E-02 10822   0.111E-01    0.297E+00
RMM:   4    -0.254909639277E+03    0.17370E-01   -0.44650E-03  9673   0.479E-02    0.111E+00
RMM:   5    -0.254892622519E+03    0.17017E-01   -0.48324E-03  9534   0.445E-02    0.401E-01
RMM:   6    -0.254890099342E+03    0.25232E-02   -0.18566E-03  9434   0.288E-02    0.424E-01
RMM:   7    -0.254889296289E+03    0.80305E-03   -0.75340E-04  9204   0.187E-02    0.240E-01
RMM:   8    -0.254888798279E+03    0.49801E-03   -0.40908E-04  9205   0.166E-02    0.909E-02
RMM:   9    -0.254888766091E+03    0.32187E-04   -0.12925E-04  8374   0.947E-03    0.476E-02
RMM:  10    -0.254888739233E+03    0.26858E-04   -0.42345E-05  7779   0.541E-03    0.487E-02
RMM:  11    -0.254888732480E+03    0.67535E-05   -0.90384E-06  5748   0.317E-03
 191 F= -.25488873E+03 E0= -.25487089E+03  d E =-.593381E-01  mag=     0.0000
       N       E                     dE             d eps       ncg     rms          rms(c)
DAV:   1    -0.254758461955E+03    0.13028E+00   -0.13213E+01 10276   0.480E+00    0.887E-01
RMM:   2    -0.254936778315E+03   -0.17832E+00   -0.15130E+00 10744   0.147E+00    0.249E+00
RMM:   3    -0.254997521256E+03   -0.60743E-01   -0.58334E-02 11074   0.215E-01    0.538E+00
RMM:   4    -0.254969479709E+03    0.28042E-01   -0.24810E-02  9774   0.108E-01    0.171E+00
RMM:   5    -0.254905276207E+03    0.64204E-01   -0.18693E-02  9730   0.870E-02    0.827E-01
RMM:   6    -0.254894158427E+03    0.11118E-01   -0.73557E-03  9789   0.574E-02    0.861E-01
RMM:   7    -0.254890631600E+03    0.35268E-02   -0.29029E-03  9584   0.369E-02    0.473E-01
RMM:   8    -0.254888809634E+03    0.18220E-02   -0.15558E-03  9663   0.323E-02    0.190E-01
RMM:   9    -0.254888712760E+03    0.96874E-04   -0.59416E-04  9404   0.195E-02    0.105E-01
RMM:  10    -0.254888578713E+03    0.13405E-03   -0.19217E-04  8881   0.110E-02    0.130E-01
RMM:  11    -0.254888548981E+03    0.29733E-04   -0.43883E-05  7632   0.600E-03    0.107E-01
RMM:  12    -0.254888513299E+03    0.35682E-04   -0.16213E-05  6554   0.360E-03    0.404E-02
RMM:  13    -0.254888506095E+03    0.72034E-05   -0.58049E-06  5386   0.244E-03
 192 F= -.25488851E+03 E0= -.25487102E+03  d E =-.591117E-01  mag=     0.0000
       N       E                     dE             d eps       ncg     rms          rms(c)
DAV:   1    -0.254840295881E+03    0.48217E-01   -0.52317E+00 10072   0.302E+00    0.563E-01
RMM:   2    -0.254921992113E+03   -0.81696E-01   -0.60219E-01 10586   0.927E-01    0.228E+00
RMM:   3    -0.254920805608E+03    0.11865E-02   -0.22082E-02 11162   0.134E-01    0.280E+00
RMM:   4    -0.254926084962E+03   -0.52794E-02   -0.11422E-02  9786   0.716E-02    0.100E+00
RMM:   5    -0.254897792661E+03    0.28292E-01   -0.74033E-03  9714   0.553E-02    0.534E-01
RMM:   6    -0.254893895840E+03    0.38968E-02   -0.28835E-03  9470   0.359E-02    0.536E-01
RMM:   7    -0.254892576621E+03    0.13192E-02   -0.11796E-03  9310   0.231E-02    0.305E-01
RMM:   8    -0.254891734608E+03    0.84201E-03   -0.63611E-04  9304   0.208E-02    0.832E-02
RMM:   9    -0.254891708923E+03    0.25685E-04   -0.19198E-04  9002   0.120E-02    0.618E-02
RMM:  10    -0.254891661205E+03    0.47719E-04   -0.61753E-05  7921   0.638E-03    0.351E-02
RMM:  11    -0.254891650589E+03    0.10615E-04   -0.14428E-05  6145   0.381E-03    0.150E-02
RMM:  12    -0.254891649583E+03    0.10060E-05   -0.49538E-06  4710   0.217E-03
 193 F= -.25489165E+03 E0= -.25487395E+03  d E =-.622552E-01  mag=     0.0000
       N       E                     dE             d eps       ncg     rms          rms(c)
DAV:   1    -0.254817500064E+03    0.74151E-01   -0.96004E+00 10396   0.410E+00    0.728E-01
RMM:   2    -0.254967888567E+03   -0.15039E+00   -0.11738E+00 10658   0.128E+00    0.125E+00
RMM:   3    -0.255007203434E+03   -0.39315E-01   -0.55065E-02 10524   0.200E-01    0.370E+00
RMM:   4    -0.254975369022E+03    0.31834E-01   -0.77215E-03  9972   0.690E-02    0.256E+00
RMM:   5    -0.254928921754E+03    0.46447E-01   -0.12509E-02  9709   0.755E-02    0.499E-01
RMM:   6    -0.254925275793E+03    0.36460E-02   -0.44316E-03  9574   0.446E-02    0.597E-01
RMM:   7    -0.254923740010E+03    0.15358E-02   -0.15729E-03  9352   0.266E-02    0.406E-01
RMM:   8    -0.254922502305E+03    0.12377E-02   -0.97740E-04  9535   0.256E-02    0.114E-01
RMM:   9    -0.254922440373E+03    0.61932E-04   -0.37599E-04  9239   0.161E-02    0.787E-02
RMM:  10    -0.254922373900E+03    0.66473E-04   -0.13854E-04  8445   0.944E-03    0.743E-02
RMM:  11    -0.254922350923E+03    0.22977E-04   -0.35617E-05  7544   0.588E-03    0.723E-02
RMM:  12    -0.254922334747E+03    0.16176E-04   -0.10590E-05  5742   0.305E-03    0.369E-02
RMM:  13    -0.254922329706E+03    0.50411E-05   -0.45484E-06  4874   0.218E-03
 194 F= -.25492233E+03 E0= -.25490522E+03  d E =-.306801E-01  mag=     0.0000
       N       E                     dE             d eps       ncg     rms          rms(c)
DAV:   1    -0.254032175637E+03    0.89016E+00   -0.86464E+01 10680   0.123E+01    0.217E+00
RMM:   2    -0.255329250399E+03   -0.12971E+01   -0.10602E+01 10808   0.387E+00    0.370E+00
RMM:   3    -0.255357102567E+03   -0.27852E-01   -0.52226E-01 10362   0.622E-01    0.326E+00
RMM:   4    -0.255151219400E+03    0.20588E+00   -0.12633E-01  9959   0.270E-01    0.503E+00
RMM:   5    -0.255075104063E+03    0.76115E-01   -0.17935E-02 10837   0.106E-01    0.481E+00
RMM:   6    -0.255004131014E+03    0.70973E-01   -0.33224E-02  9986   0.124E-01    0.162E+00
RMM:   7    -0.254993898310E+03    0.10233E-01   -0.14405E-02  9942   0.784E-02    0.118E+00
RMM:   8    -0.254983145573E+03    0.10753E-01   -0.74782E-03 10085   0.708E-02    0.359E-01
RMM:   9    -0.254982997823E+03    0.14775E-03   -0.33668E-03 10060   0.471E-02    0.263E-01
RMM:  10    -0.254982278390E+03    0.71943E-03   -0.13843E-03  9754   0.284E-02    0.237E-01
RMM:  11    -0.254982081251E+03    0.19714E-03   -0.43390E-04  9535   0.186E-02    0.225E-01
RMM:  12    -0.254981937676E+03    0.14357E-03   -0.13658E-04  8409   0.928E-03    0.155E-01
RMM:  13    -0.254981865769E+03    0.71907E-04   -0.46282E-05  7732   0.602E-03    0.822E-02
RMM:  14    -0.254981847173E+03    0.18596E-04   -0.10294E-05  5882   0.312E-03    0.371E-02
RMM:  15    -0.254981843124E+03    0.40486E-05   -0.36872E-06  4754   0.195E-03
 195 F= -.25498184E+03 E0= -.25496644E+03  d E =-.901935E-01  mag=     0.0000
       N       E                     dE             d eps       ncg     rms          rms(c)
DAV:   1    -0.251057965572E+03    0.39239E+01   -0.34625E+02 10728   0.248E+01    0.436E+00
RMM:   2    -0.256629214737E+03   -0.55712E+01   -0.43813E+01 10778   0.786E+00    0.150E+01
RMM:   3    -0.256443656207E+03    0.18556E+00   -0.17099E+00 10508   0.121E+00    0.213E+01
RMM:   4    -0.257833566218E+03   -0.13899E+01   -0.51345E-01  9930   0.500E-01    0.141E+01
RMM:   5    -0.255212627012E+03    0.26209E+01   -0.40350E-01  9816   0.423E-01    0.388E+00
RMM:   6    -0.255083497216E+03    0.12913E+00   -0.18941E-01 10189   0.301E-01    0.296E+00
RMM:   7    -0.255019910296E+03    0.63587E-01   -0.55363E-02 10149   0.168E-01    0.303E+00
RMM:   8    -0.254974000267E+03    0.45910E-01   -0.20918E-02 10318   0.116E-01    0.101E+00
RMM:   9    -0.254998322031E+03   -0.24322E-01   -0.22889E-02 10142   0.125E-01    0.254E+00
RMM:  10    -0.254992563405E+03    0.57586E-02   -0.12888E-02 10348   0.857E-02    0.267E+00
RMM:  11    -0.254968494386E+03    0.24069E-01   -0.37368E-03  9930   0.537E-02    0.500E-01
RMM:  12    -0.254968324646E+03    0.16974E-03   -0.21603E-03  9977   0.363E-02    0.512E-01
RMM:  13    -0.254967418299E+03    0.90635E-03   -0.74368E-04  9411   0.217E-02    0.307E-01
RMM:  14    -0.254967367559E+03    0.50740E-04   -0.18219E-04  8680   0.101E-02    0.327E-01
RMM:  15    -0.254967094806E+03    0.27275E-03   -0.99206E-05  8376   0.878E-03    0.176E-01
RMM:  16    -0.254966992706E+03    0.10210E-03   -0.18826E-05  6714   0.394E-03    0.448E-02
RMM:  17    -0.254966999508E+03   -0.68016E-05   -0.39857E-06  5590   0.234E-03
 196 F= -.25496700E+03 E0= -.25495469E+03  d E =-.753499E-01  mag=     0.0000
       N       E                     dE             d eps       ncg     rms          rms(c)
DAV:   1    -0.253340345185E+03    0.16266E+01   -0.14983E+02 10608   0.162E+01    0.293E+00
RMM:   2    -0.256888090946E+03   -0.35477E+01   -0.18961E+01 10800   0.517E+00    0.156E+01
RMM:   3    -0.255680914633E+03    0.12072E+01   -0.71480E-01 10954   0.757E-01    0.133E+01
RMM:   4    -0.255810782858E+03   -0.12987E+00   -0.29457E-01  9706   0.366E-01    0.463E+00
RMM:   5    -0.255074863405E+03    0.73592E+00   -0.18953E-01  9978   0.302E-01    0.178E+00
RMM:   6    -0.255038437980E+03    0.36425E-01   -0.67704E-02 10291   0.181E-01    0.174E+00
RMM:   7    -0.255019612180E+03    0.18826E-01   -0.22877E-02 10151   0.103E-01    0.167E+00
RMM:   8    -0.255001325325E+03    0.18287E-01   -0.12776E-02 10170   0.896E-02    0.937E-01
RMM:   9    -0.254999843436E+03    0.14819E-02   -0.53990E-03  9966   0.679E-02    0.624E-01
RMM:  10    -0.254998246645E+03    0.15968E-02   -0.31004E-03 10011   0.452E-02    0.668E-01
RMM:  11    -0.254997353607E+03    0.89304E-03   -0.88169E-04  9878   0.260E-02    0.557E-01
RMM:  12    -0.254996517112E+03    0.83649E-03   -0.28262E-04  9225   0.145E-02    0.124E-01
RMM:  13    -0.254996486516E+03    0.30597E-04   -0.14252E-04  8449   0.958E-03    0.229E-01
RMM:  14    -0.254996428048E+03    0.58467E-04   -0.32181E-05  7353   0.508E-03    0.167E-01
RMM:  15    -0.254996331771E+03    0.96277E-04   -0.14012E-05  6292   0.332E-03    0.208E-02
RMM:  16    -0.254996335091E+03   -0.33202E-05   -0.63898E-06  5264   0.248E-03
 197 F= -.25499634E+03 E0= -.25498200E+03  d E =-.104686E+00  mag=     0.0000
       N       E                     dE             d eps       ncg     rms          rms(c)
DAV:   1    -0.254680727474E+03    0.31560E+00   -0.34073E+01 10688   0.772E+00    0.136E+00
RMM:   2    -0.255267438769E+03   -0.58671E+00   -0.42649E+00 10794   0.245E+00    0.238E+00
RMM:   3    -0.255326505307E+03   -0.59067E-01   -0.20892E-01 10510   0.387E-01    0.641E+00
RMM:   4    -0.255235696403E+03    0.90809E-01   -0.24763E-02 10020   0.126E-01    0.486E+00
RMM:   5    -0.255078240935E+03    0.15746E+00   -0.40514E-02  9795   0.139E-01    0.842E-01
RMM:   6    -0.255071882041E+03    0.63589E-02   -0.12862E-02 10083   0.787E-02    0.104E+00
RMM:   7    -0.255068115693E+03    0.37663E-02   -0.49016E-03  9718   0.471E-02    0.765E-01
RMM:   8    -0.255063506899E+03    0.46088E-02   -0.31876E-03 10012   0.466E-02    0.192E-01
RMM:   9    -0.255063313619E+03    0.19328E-03   -0.11626E-03 10029   0.302E-02    0.131E-01
RMM:  10    -0.255063220903E+03    0.92716E-04   -0.42434E-04  9165   0.163E-02    0.160E-01
RMM:  11    -0.255063162302E+03    0.58601E-04   -0.12684E-04  8392   0.981E-03    0.176E-01
RMM:  12    -0.255063093277E+03    0.69025E-04   -0.41867E-05  7822   0.558E-03    0.101E-01
RMM:  13    -0.255063070360E+03    0.22916E-04   -0.13593E-05  6190   0.334E-03    0.633E-02
RMM:  14    -0.255063054535E+03    0.15826E-04   -0.43330E-06  5148   0.208E-03    0.170E-02
RMM:  15    -0.255063057401E+03   -0.28657E-05   -0.18147E-06  4453   0.140E-03
 198 F= -.25506306E+03 E0= -.25504993E+03  d E =-.667223E-01  mag=     0.0000
       N       E                     dE             d eps       ncg     rms          rms(c)
DAV:   1    -0.251620233933E+03    0.34428E+01   -0.30707E+02 10784   0.233E+01    0.412E+00
RMM:   2    -0.257132051796E+03   -0.55118E+01   -0.39822E+01 10775   0.748E+00    0.156E+01
RMM:   3    -0.256284858561E+03    0.84719E+00   -0.15910E+00 10458   0.116E+00    0.182E+01
RMM:   4    -0.258088872218E+03   -0.18040E+01   -0.47666E-01  9898   0.472E-01    0.157E+01
RMM:   5    -0.255307405521E+03    0.27815E+01   -0.35410E-01  9880   0.402E-01    0.246E+00
RMM:   6    -0.255296040262E+03    0.11365E-01   -0.14869E-01 10260   0.264E-01    0.336E+00
RMM:   7    -0.255206751083E+03    0.89289E-01   -0.50511E-02 10097   0.156E-01    0.257E+00
RMM:   8    -0.255172695088E+03    0.34056E-01   -0.21350E-02 10242   0.117E-01    0.815E-01
RMM:   9    -0.255185916049E+03   -0.13221E-01   -0.15736E-02 10000   0.106E-01    0.203E+00
RMM:  10    -0.255184464699E+03    0.14513E-02   -0.10064E-02 10053   0.746E-02    0.222E+00
RMM:  11    -0.255172670424E+03    0.11794E-01   -0.30096E-03  9914   0.462E-02    0.118E+00
RMM:  12    -0.255168618953E+03    0.40515E-02   -0.15450E-03  9847   0.292E-02    0.505E-01
RMM:  13    -0.255168911760E+03   -0.29281E-03   -0.59208E-04  9483   0.196E-02    0.635E-01
RMM:  14    -0.255167567757E+03    0.13440E-02   -0.12826E-04  8342   0.916E-03    0.890E-02
RMM:  15    -0.255167549660E+03    0.18097E-04   -0.79215E-05  8283   0.818E-03    0.825E-02
RMM:  16    -0.255167540352E+03    0.93082E-05   -0.25832E-05  7398   0.435E-03
 199 F= -.25516754E+03 E0= -.25515781E+03  d E =-.171205E+00  mag=     0.0000
       N       E                     dE             d eps       ncg     rms          rms(c)
DAV:   1    -0.254853844257E+03    0.31371E+00   -0.33972E+01 10808   0.768E+00    0.134E+00
RMM:   2    -0.255398755052E+03   -0.54491E+00   -0.42480E+00 10796   0.242E+00    0.329E+00
RMM:   3    -0.255521302533E+03   -0.12255E+00   -0.17995E-01 10866   0.367E-01    0.819E+00
RMM:   4    -0.255437264581E+03    0.84038E-01   -0.43823E-02  9656   0.148E-01    0.315E+00
RMM:   5    -0.255270967099E+03    0.16630E+00   -0.44600E-02  9758   0.139E-01    0.118E+00
RMM:   6    -0.255250472651E+03    0.20494E-01   -0.13627E-02 10008   0.788E-02    0.126E+00
RMM:   7    -0.255242964342E+03    0.75083E-02   -0.45925E-03  9785   0.490E-02    0.393E-01
RMM:   8    -0.255241217057E+03    0.17473E-02   -0.27385E-03  9798   0.426E-02    0.199E-01
RMM:   9    -0.255241259933E+03   -0.42876E-04   -0.12908E-03  9684   0.293E-02    0.168E-01
RMM:  10    -0.255240895530E+03    0.36440E-03   -0.47310E-04  9093   0.173E-02    0.156E-01
RMM:  11    -0.255240996853E+03   -0.10132E-03   -0.90973E-05  8004   0.824E-03    0.238E-01
RMM:  12    -0.255240822437E+03    0.17442E-03   -0.38033E-05  7794   0.590E-03    0.806E-02
RMM:  13    -0.255240803564E+03    0.18873E-04   -0.98564E-06  5754   0.320E-03    0.183E-02
RMM:  14    -0.255240807612E+03   -0.40478E-05   -0.30818E-06  4726   0.185E-03
 200 F= -.25524081E+03 E0= -.25523183E+03  d E =-.732673E-01  mag=     0.0000
