       N       E                     dE             d eps       ncg     rms          rms(c)
DAV:   1     0.206226068386E+04    0.20623E+04   -0.28275E+05  7264   0.112E+03
DAV:   2    -0.683677822650E+03   -0.27459E+04   -0.52344E+04  7716   0.355E+02
DAV:   3    -0.146549697357E+05   -0.13971E+05   -0.10190E+05  8592   0.112E+02
DAV:   4    -0.426416045708E+05   -0.27987E+05   -0.38905E+05  9398   0.496E+01
DAV:   5    -0.361212725277E+05    0.65203E+04   -0.34470E+05  9328   0.439E+01    0.466E+03
RMM:   6     0.778945591230E+05    0.11402E+06   -0.86399E+04 10855   0.487E+02    0.437E+03
RMM:   7    -0.215446112677E+05   -0.99439E+05   -0.42655E+04 10550   0.313E+02    0.178E+03
RMM:   8     0.525471034561E+04    0.26799E+05   -0.15401E+04 10555   0.184E+02    0.113E+03
RMM:   9    -0.207833453923E+04   -0.73330E+04   -0.73287E+03 10310   0.131E+02    0.787E+02
RMM:  10     0.987933773343E+03    0.30663E+04   -0.53917E+03 10292   0.102E+02    0.781E+02
RMM:  11     0.168295986479E+04    0.69503E+03   -0.23561E+03  9915   0.691E+01    0.661E+02
RMM:  12     0.240237370202E+04    0.71941E+03   -0.60902E+02  9723   0.526E+01    0.551E+02
RMM:  13     0.336812391269E+04    0.96575E+03   -0.14609E+03  9471   0.533E+01    0.447E+02
RMM:  14     0.406413997536E+04    0.69602E+03   -0.83206E+02  9730   0.551E+01    0.421E+02
RMM:  15     0.423101556861E+04    0.16688E+03   -0.12363E+03  9609   0.452E+01    0.381E+02
RMM:  16     0.421011745647E+04   -0.20898E+02    0.15284E+02  9138   0.425E+01    0.424E+02
RMM:  17     0.413487970022E+04   -0.75238E+02   -0.34997E+02  9241   0.295E+01    0.487E+02
RMM:  18     0.411834504818E+04   -0.16535E+02    0.77474E+00  9157   0.270E+01    0.527E+02
RMM:  19     0.410713851840E+04   -0.11207E+02    0.32818E+02  9132   0.288E+01    0.523E+02
RMM:  20     0.426812619677E+04    0.16099E+03   -0.14137E+02  9132   0.407E+01    0.505E+02
RMM:  21     0.435160143366E+04    0.83475E+02   -0.44139E+01  9232   0.349E+01    0.485E+02
RMM:  22     0.440086734355E+04    0.49266E+02    0.26497E+02  9302   0.315E+01    0.519E+02
RMM:  23     0.437573656596E+04   -0.25131E+02    0.47702E+02  9076   0.256E+01    0.505E+02
RMM:  24     0.441597646202E+04    0.40240E+02   -0.69066E+01  8745   0.311E+01    0.518E+02
RMM:  25     0.428841118875E+04   -0.12757E+03   -0.17627E+02  9406   0.344E+01    0.676E+02
RMM:  26     0.514013529176E+04    0.85172E+03    0.37725E+02  9171   0.361E+01    0.504E+02
RMM:  27     0.448354326569E+04   -0.65659E+03   -0.98961E+02  9351   0.302E+01    0.514E+02
RMM:  28     0.444786323318E+04   -0.35680E+02   -0.86153E+01  9053   0.348E+01    0.588E+02
RMM:  29     0.450617826700E+04    0.58315E+02   -0.25936E+02  9479   0.307E+01    0.544E+02
