       N       E                     dE             d eps       ncg     rms          rms(c)
DAV:   1    -0.659751143065E+15   -0.65975E+15    0.67132E+12  6944   0.830E+13
DAV:   2    -0.945432639394E+17   -0.93884E+17   -0.94204E+17  5712   0.306E+13
DAV:   3    -0.540144563935E+05    0.94543E+17   -0.53630E+05  9584   0.155E+02
DAV:   4    -0.315175722921E+04    0.50863E+05   -0.30118E+04  9280   0.118E+02
DAV:   5    -0.528909613351E+04   -0.21373E+04   -0.25532E+04  9304   0.568E+01    0.215E+04
