       N       E                     dE             d eps       ncg     rms          rms(c)
DAV:   1     0.307317988420E+04    0.30732E+04    0.10638E+16  6976   0.373E+13
DAV:   2     0.390181007464E+02   -0.30342E+04   -0.48302E+04  5720   0.639E+02
DAV:   3    -0.380691456815E+03   -0.41971E+03   -0.38775E+03  9492   0.150E+02
DAV:   4    -0.420204323702E+03   -0.39513E+02   -0.37461E+02  9368   0.498E+01
DAV:   5    -0.422554434910E+03   -0.23501E+01   -0.22911E+01  9216   0.966E+00    0.204E+03
RMM:   6     0.515188919674E+05    0.51941E+05   -0.12948E+04  8603   0.304E+02    0.184E+03
RMM:   7     0.833030547022E+02   -0.51436E+05   -0.37590E+03  7360   0.182E+02    0.476E+02
RMM:   8    -0.148268565031E+04   -0.15660E+04   -0.34913E+03  7853   0.166E+02    0.365E+02
RMM:   9    -0.669314229237E+02    0.14158E+04   -0.91386E+02  7956   0.123E+02    0.259E+02
RMM:  10     0.156104979265E+03    0.22304E+03    0.55375E+02  7074   0.651E+01    0.210E+02
RMM:  11     0.245367618066E+02   -0.13157E+03    0.14961E+02  7473   0.597E+01    0.200E+02
RMM:  12     0.206884611360E+03    0.18235E+03    0.55611E+02  6990   0.444E+01    0.170E+02
RMM:  13     0.329476683257E+03    0.12259E+03    0.10538E+03  7161   0.398E+01    0.148E+02
RMM:  14     0.372535114928E+03    0.43058E+02    0.72391E+02  7164   0.389E+01    0.123E+02
RMM:  15     0.382038006356E+03    0.95029E+01    0.62018E+02  6782   0.350E+01    0.100E+02
RMM:  16     0.399818195778E+03    0.17780E+02    0.68106E+02  7223   0.284E+01    0.860E+01
RMM:  17     0.407279129555E+03    0.74609E+01    0.91903E+02  7642   0.250E+01    0.779E+01
RMM:  18     0.412146612342E+03    0.48675E+01    0.11731E+03  7735   0.224E+01    0.719E+01
RMM:  19     0.404377235755E+03   -0.77694E+01    0.60510E+02  7160   0.189E+01    0.677E+01
RMM:  20     0.390654911402E+03   -0.13722E+02    0.12194E+03  7268   0.216E+01    0.646E+01
RMM:  21     0.379247731821E+03   -0.11407E+02    0.60132E+02  7086   0.182E+01    0.599E+01
RMM:  22     0.368032124645E+03   -0.11216E+02    0.10223E+03  7357   0.199E+01    0.577E+01
RMM:  23     0.345014783929E+03   -0.23017E+02    0.81931E+02  7212   0.159E+01    0.545E+01
RMM:  24     0.344908666711E+03   -0.10612E+00    0.10784E+03  7390   0.184E+01    0.536E+01
RMM:  25     0.333304441429E+03   -0.11604E+02    0.74585E+02  7438   0.171E+01    0.559E+01
RMM:  26     0.338859462733E+03    0.55550E+01    0.11128E+03  7804   0.171E+01    0.639E+01
RMM:  27     0.338017305013E+03   -0.84216E+00    0.62384E+02  8000   0.159E+01    0.563E+01
RMM:  28     0.342547487914E+03    0.45302E+01    0.11047E+03  7630   0.175E+01    0.581E+01
RMM:  29     0.342483512690E+03   -0.63975E-01    0.68034E+02  7548   0.154E+01    0.621E+01
RMM:  30     0.344355592578E+03    0.18721E+01    0.10751E+03  7196   0.182E+01    0.551E+01
RMM:  31     0.341725025170E+03   -0.26306E+01    0.82724E+02  7020   0.153E+01    0.549E+01
RMM:  32     0.344693579856E+03    0.29686E+01    0.87957E+02  6957   0.165E+01    0.522E+01
RMM:  33     0.342922239553E+03   -0.17713E+01    0.84219E+02  6876   0.162E+01    0.531E+01
RMM:  34     0.345919126739E+03    0.29969E+01    0.86694E+02  7257   0.163E+01    0.498E+01
RMM:  35     0.343376315759E+03   -0.25428E+01    0.87605E+02  7139   0.136E+01    0.512E+01
RMM:  36     0.348808042129E+03    0.54317E+01    0.79630E+02  7067   0.149E+01    0.486E+01
RMM:  37     0.340988672676E+03   -0.78194E+01    0.64169E+02  6983   0.127E+01    0.486E+01
RMM:  38     0.342803951891E+03    0.18153E+01    0.98884E+02  6947   0.171E+01    0.652E+01
RMM:  39     0.342852099703E+03    0.48148E-01    0.83265E+02  8229   0.165E+01    0.591E+01
RMM:  40     0.336838178632E+03   -0.60139E+01    0.10375E+03  6818   0.165E+01    0.622E+01
RMM:  41     0.332421787147E+03   -0.44164E+01    0.12314E+03  7050   0.174E+01    0.667E+01
RMM:  42     0.334478657669E+03    0.20569E+01    0.98873E+02  8095   0.168E+01    0.620E+01
RMM:  43     0.339316002688E+03    0.48373E+01    0.12189E+03  6959   0.175E+01    0.640E+01
RMM:  44     0.350973553125E+03    0.11658E+02    0.11825E+03  7279   0.198E+01    0.620E+01
RMM:  45     0.341966454512E+03   -0.90071E+01    0.96107E+02  7044   0.174E+01    0.579E+01
RMM:  46     0.348561923027E+03    0.65955E+01    0.10541E+03  6888   0.182E+01    0.493E+01
RMM:  47     0.334057355976E+03   -0.14505E+02    0.70790E+02  7067   0.153E+01    0.659E+01
RMM:  48     0.339326882320E+03    0.52695E+01    0.10100E+03  8102   0.194E+01    0.575E+01
RMM:  49     0.328389747263E+03   -0.10937E+02    0.82216E+02  7073   0.155E+01    0.627E+01
RMM:  50     0.339027110801E+03    0.10637E+02    0.12114E+03  7216   0.193E+01    0.532E+01
RMM:  51     0.146270478348E+03   -0.19276E+03    0.56128E+02  6575   0.370E+01    0.441E+01
RMM:  52     0.151474884001E+03    0.52044E+01    0.10654E+03  6590   0.369E+01    0.686E+01
RMM:  53     0.155379812701E+03    0.39049E+01    0.10655E+03  8455   0.224E+01    0.350E+01
RMM:  54     0.131639867097E+03   -0.23740E+02    0.79848E+02  7372   0.178E+01    0.439E+01
RMM:  55     0.133792695929E+03    0.21528E+01    0.10429E+03  7990   0.177E+01    0.523E+01
RMM:  56     0.967050383480E+02   -0.37088E+02    0.91374E+02  6932   0.263E+01    0.627E+01
RMM:  57     0.975657979500E+02    0.86076E+00    0.94703E+02  6713   0.224E+01    0.474E+01
RMM:  58     0.830225228013E+02   -0.14543E+02    0.10295E+03  7072   0.208E+01    0.518E+01
RMM:  59     0.595525087705E+02   -0.23470E+02    0.95989E+02  6932   0.217E+01    0.425E+01
RMM:  60     0.218933493869E+02   -0.37659E+02    0.90684E+02  7160   0.207E+01
