       N       E                     dE             d eps       ncg     rms          rms(c)
DAV:   1     0.173574248577E+05    0.17357E+05   -0.65225E+05 10128   0.139E+03
DAV:   2     0.186464032960E+04   -0.15493E+05   -0.14743E+05  9792   0.499E+02
DAV:   3     0.657929211546E+03   -0.12067E+04   -0.11560E+04 10104   0.165E+02
DAV:   4     0.609894997663E+03   -0.48034E+02   -0.47316E+02 11040   0.303E+01
DAV:   5     0.607412120484E+03   -0.24829E+01   -0.24800E+01 14168   0.571E+00    0.133E+03
RMM:   6    -0.674643021243E+04   -0.73538E+04   -0.10143E+04 12891   0.671E+01    0.152E+03
RMM:   7     0.715213297383E+03    0.74616E+04   -0.75182E+02 10568   0.301E+01    0.755E+02
RMM:   8    -0.889386708665E+04   -0.96091E+04   -0.17450E+04 13499   0.987E+01    0.116E+03
RMM:   9    -0.935868736591E+03    0.79580E+04   -0.14432E+03 10524   0.363E+01    0.340E+02
RMM:  10     0.532689930227E+03    0.14686E+04   -0.47346E+03 10868   0.560E+01    0.320E+02
RMM:  11     0.550601782308E+03    0.17912E+02   -0.24947E+02 10273   0.158E+01    0.294E+02
RMM:  12     0.528584270915E+03   -0.22018E+02   -0.28386E+02 10718   0.140E+01    0.303E+02
RMM:  13     0.790269833752E+03    0.26169E+03   -0.20128E+01 10639   0.325E+00    0.272E+02
RMM:  14     0.889120062593E+03    0.98850E+02   -0.40457E+00 10233   0.190E+00    0.227E+02
RMM:  15     0.840417323103E+03   -0.48703E+02   -0.29191E+00 10320   0.146E+00    0.260E+02
RMM:  16     0.726917866863E+03   -0.11350E+03   -0.27883E+00 10201   0.145E+00    0.304E+02
RMM:  17     0.792620933169E+03    0.65703E+02   -0.62702E-01 10132   0.896E-01    0.274E+02
RMM:  18     0.849512623310E+03    0.56892E+02   -0.44919E+00 10061   0.183E+00    0.230E+02
RMM:  19     0.102869014958E+04    0.17918E+03   -0.51336E+01  9684   0.670E+00    0.365E+01
RMM:  20     0.101869185857E+04   -0.99983E+01   -0.75982E+00 10108   0.257E+00    0.407E+01
RMM:  21     0.999258193218E+03   -0.19434E+02   -0.25610E+01  9932   0.464E+00    0.188E+02
RMM:  22     0.992873590836E+03   -0.63846E+01   -0.14594E+01  9883   0.410E+00    0.481E+01
RMM:  23     0.997836141062E+03    0.49626E+01   -0.37883E+00  9848   0.191E+00    0.314E+01
RMM:  24     0.961678509648E+03   -0.36158E+02   -0.15113E+01  9616   0.351E+00    0.757E+01
RMM:  25     0.928326853581E+03   -0.33352E+02   -0.51784E+00  9701   0.219E+00    0.121E+02
RMM:  26     0.957036265423E+03    0.28709E+02   -0.32733E+00  9739   0.168E+00    0.702E+01
RMM:  27     0.963540272206E+03    0.65040E+01   -0.84141E+00  9600   0.224E+00    0.144E+01
RMM:  28     0.957191462095E+03   -0.63488E+01   -0.19098E+00  9868   0.101E+00    0.151E+01
RMM:  29     0.948214484343E+03   -0.89770E+01   -0.58799E+00  9421   0.161E+00    0.103E+01
RMM:  30     0.940391589513E+03   -0.78229E+01   -0.60924E+00  9453   0.139E+00    0.269E+01
RMM:  31     0.931036403875E+03   -0.93552E+01   -0.74264E+00  9290   0.160E+00    0.772E+00
RMM:  32     0.921142412929E+03   -0.98940E+01   -0.10195E+01  9537   0.146E+00    0.199E+01
RMM:  33     0.919386936206E+03   -0.17555E+01   -0.27665E+00  9911   0.761E-01    0.169E+01
RMM:  34     0.919270561466E+03   -0.11637E+00   -0.42715E+00  9650   0.838E-01    0.231E+01
RMM:  35     0.919332044309E+03    0.61483E-01   -0.59109E-01 10125   0.360E-01    0.127E+01
RMM:  36     0.918113155096E+03   -0.12189E+01   -0.74921E-01  9803   0.442E-01    0.220E+01
RMM:  37     0.917924591423E+03   -0.18856E+00   -0.27595E-01  9808   0.299E-01    0.171E+01
RMM:  38     0.917401310419E+03   -0.52328E+00   -0.13373E-01  9790   0.247E-01    0.165E+01
RMM:  39     0.917399138693E+03   -0.21717E-02   -0.28338E-02  9983   0.150E-01    0.107E+01
RMM:  40     0.917309717076E+03   -0.89422E-01   -0.63287E-02  9704   0.189E-01    0.250E+00
RMM:  41     0.916718104103E+03   -0.59161E+00   -0.15844E-02 10102   0.889E-02    0.270E+00
RMM:  42     0.915320154648E+03   -0.13979E+01   -0.30593E-02  9783   0.114E-01    0.198E+00
RMM:  43     0.915008682604E+03   -0.31147E+00   -0.86320E-03 10131   0.590E-02    0.211E+00
RMM:  44     0.914874420853E+03   -0.13426E+00   -0.77893E-03  9590   0.531E-02    0.535E-01
RMM:  45     0.914809267391E+03   -0.65153E-01   -0.53924E-03  9668   0.408E-02    0.224E-01
RMM:  46     0.914781550312E+03   -0.27717E-01   -0.26470E-03  9501   0.284E-02    0.325E-01
RMM:  47     0.914769671851E+03   -0.11878E-01   -0.48191E-04  8266   0.130E-02    0.289E-01
RMM:  48     0.914755610415E+03   -0.14061E-01   -0.35015E-04  8246   0.126E-02    0.202E-01
RMM:  49     0.914746873513E+03   -0.87369E-02   -0.22743E-04  8066   0.105E-02    0.945E-02
RMM:  50     0.914740291481E+03   -0.65820E-02   -0.10920E-04  6788   0.704E-03    0.138E-01
RMM:  51     0.914734041001E+03   -0.62505E-02   -0.17120E-04  6437   0.702E-03    0.276E-01
RMM:  52     0.914731314543E+03   -0.27265E-02   -0.54020E-05  6080   0.597E-03    0.177E-01
RMM:  53     0.914730238812E+03   -0.10757E-02    0.43785E-05  5963   0.438E-03    0.875E-02
RMM:  54     0.914729740507E+03   -0.49830E-03    0.10240E-04  5728   0.318E-03    0.148E-02
RMM:  55     0.914729557050E+03   -0.18346E-03    0.14169E-04  5187   0.221E-03    0.252E-02
RMM:  56     0.914729485310E+03   -0.71740E-04    0.17141E-04  4316   0.150E-03    0.195E-02
RMM:  57     0.914729434587E+03   -0.50723E-04    0.23578E-04  3727   0.118E-03    0.138E-02
RMM:  58     0.914729408871E+03   -0.25716E-04    0.64296E-04  3874   0.109E-03    0.711E-03
RMM:  59     0.914729389873E+03   -0.18999E-04    0.99539E-04  3118   0.838E-04    0.401E-03
RMM:  60     0.914729429863E+03    0.39990E-04    0.28591E-04  2708   0.746E-04
   1 F= 0.91472943E+03 E0= 0.91478136E+03  d E =0.914729E+03  mag=     0.0010
       N       E                     dE             d eps       ncg     rms          rms(c)
DAV:   1     0.160835907812E+04    0.69363E+03   -0.40052E+04 12088   0.375E+02    0.302E+02
RMM:   2    -0.670784096983E+04   -0.83162E+04   -0.31248E+04 14062   0.155E+02    0.401E+02
RMM:   3    -0.376463673626E+04    0.29432E+04   -0.94198E+03 11362   0.856E+01    0.863E+02
RMM:   4    -0.413019690610E+04   -0.36556E+03   -0.32529E+03 12332   0.351E+01    0.944E+02
RMM:   5    -0.434365417194E+04   -0.21346E+03   -0.18167E+03 13421   0.197E+01    0.101E+03
RMM:   6    -0.389762998357E+04    0.44602E+03   -0.13390E+03 11483   0.211E+01    0.952E+02
RMM:   7    -0.402205441901E+04   -0.12442E+03   -0.10379E+03 12235   0.190E+01    0.907E+02
RMM:   8    -0.657942218431E+03    0.33641E+04   -0.10315E+03 10215   0.215E+01    0.275E+02
RMM:   9    -0.106920027058E+03    0.55102E+03   -0.28517E+02 10669   0.109E+01    0.238E+02
RMM:  10     0.823783146624E+02    0.18930E+03   -0.83077E+01 10204   0.615E+00    0.323E+02
RMM:  11     0.831717472387E+02    0.79343E+00   -0.14990E+01 10743   0.242E+00    0.360E+02
RMM:  12     0.958577527394E+02    0.12686E+02   -0.57350E+00 11334   0.127E+00    0.357E+02
RMM:  13     0.948472222468E+02   -0.10105E+01   -0.42880E-01 13358   0.317E-01    0.357E+02
RMM:  14     0.100569651219E+03    0.57224E+01   -0.99027E-01 10075   0.513E-01    0.354E+02
RMM:  15     0.166888901936E+03    0.66319E+02   -0.42590E+00  9430   0.184E+00    0.328E+02
RMM:  16     0.365822430179E+03    0.19893E+03   -0.37436E+01  9599   0.484E+00    0.341E+02
RMM:  17     0.435677430844E+03    0.69855E+02   -0.22022E+01  9661   0.451E+00    0.272E+02
RMM:  18     0.485997453269E+03    0.50320E+02   -0.37464E+01  9709   0.490E+00    0.200E+02
RMM:  19     0.488665709812E+03    0.26683E+01   -0.22698E+00 10737   0.138E+00    0.175E+02
RMM:  20     0.495310993798E+03    0.66453E+01   -0.14555E+00 10357   0.968E-01    0.150E+02
RMM:  21     0.489780735089E+03   -0.55303E+01   -0.37095E-01 10317   0.493E-01    0.167E+02
RMM:  22     0.479489309324E+03   -0.10291E+02   -0.42722E+00  9584   0.152E+00    0.163E+02
RMM:  23     0.520561890216E+03    0.41073E+02   -0.10668E+01  9666   0.225E+00    0.747E+01
RMM:  24     0.521693239044E+03    0.11313E+01   -0.17360E+00 10215   0.101E+00    0.857E+01
RMM:  25     0.524694667754E+03    0.30014E+01   -0.79757E-01  9994   0.765E-01    0.616E+01
RMM:  26     0.526447908128E+03    0.17532E+01   -0.12401E+00  9929   0.862E-01    0.411E+01
RMM:  27     0.526385483577E+03   -0.62425E-01   -0.48785E-01 10455   0.499E-01    0.362E+01
RMM:  28     0.527840848572E+03    0.14554E+01   -0.73054E-01  9906   0.701E-01    0.269E+01
RMM:  29     0.528616858065E+03    0.77601E+00   -0.33226E-01  9704   0.537E-01    0.217E+01
RMM:  30     0.528787050353E+03    0.17019E+00   -0.66313E-02 10158   0.235E-01    0.186E+01
RMM:  31     0.529077184044E+03    0.29013E+00   -0.13702E-01  9703   0.298E-01    0.143E+01
RMM:  32     0.529041195309E+03   -0.35989E-01   -0.68803E-02  9926   0.209E-01    0.115E+01
RMM:  33     0.529204358092E+03    0.16316E+00   -0.10164E-01  9336   0.306E-01    0.729E+00
RMM:  34     0.529189694115E+03   -0.14664E-01   -0.24159E-02 10181   0.122E-01    0.581E+00
RMM:  35     0.529200482953E+03    0.10789E-01   -0.65372E-03  9738   0.672E-02    0.518E+00
RMM:  36     0.529227399527E+03    0.26917E-01   -0.26129E-02  9268   0.119E-01    0.505E+00
RMM:  37     0.529235886625E+03    0.84871E-02   -0.70149E-03  9792   0.697E-02    0.339E+00
RMM:  38     0.529243855620E+03    0.79690E-02   -0.93133E-03  9801   0.794E-02    0.207E+00
RMM:  39     0.529235272622E+03   -0.85830E-02   -0.44757E-03  9815   0.532E-02    0.194E+00
RMM:  40     0.529226311818E+03   -0.89608E-02   -0.25796E-03  9361   0.286E-02    0.162E+00
RMM:  41     0.529219058556E+03   -0.72533E-02   -0.15485E-03  8943   0.207E-02    0.116E+00
RMM:  42     0.529214949953E+03   -0.41086E-02   -0.76930E-04  9514   0.198E-02    0.840E-01
RMM:  43     0.529209400029E+03   -0.55499E-02   -0.33291E-04  9305   0.170E-02    0.606E-01
RMM:  44     0.529199830345E+03   -0.95697E-02   -0.93875E-04  8866   0.225E-02    0.407E-01
RMM:  45     0.529195112153E+03   -0.47182E-02   -0.43725E-04  8028   0.126E-02    0.258E-01
RMM:  46     0.529193102367E+03   -0.20098E-02   -0.19313E-04  7814   0.984E-03    0.739E-02
RMM:  47     0.529192113846E+03   -0.98852E-03   -0.11623E-04  7528   0.955E-03    0.870E-02
RMM:  48     0.529192121014E+03    0.71673E-05   -0.81134E-06  5816   0.351E-03
   2 F= 0.52919212E+03 E0= 0.52921147E+03  d E =-.385537E+03  mag=    -0.0175
       N       E                     dE             d eps       ncg     rms          rms(c)
DAV:   1     0.529449360417E+03    0.25725E+00   -0.46658E+01 12144   0.100E+01    0.371E+00
RMM:   2     0.528047941926E+03   -0.14014E+01   -0.48336E+00 10426   0.236E+00    0.103E+01
RMM:   3     0.528737965141E+03    0.69002E+00   -0.30895E-01 10417   0.536E-01    0.838E+00
RMM:   4     0.528465822615E+03   -0.27214E+00   -0.31922E-01  9957   0.406E-01    0.628E+00
RMM:   5     0.528832670989E+03    0.36685E+00   -0.17046E-01 10275   0.362E-01    0.577E+00
RMM:   6     0.529072257518E+03    0.23959E+00   -0.58143E-02 10317   0.167E-01    0.547E-01
RMM:   7     0.529073381577E+03    0.11241E-02   -0.12362E-02 10121   0.896E-02    0.927E-01
RMM:   8     0.529067847988E+03   -0.55336E-02   -0.19119E-03 10310   0.352E-02    0.155E+00
RMM:   9     0.529066980154E+03   -0.86783E-03   -0.74074E-04  9475   0.239E-02    0.159E+00
RMM:  10     0.529076996574E+03    0.10016E-01   -0.12270E-03  9650   0.300E-02    0.231E-01
RMM:  11     0.529076993740E+03   -0.28342E-05   -0.12725E-04  8528   0.121E-02    0.232E-01
RMM:  12     0.529077186721E+03    0.19298E-03   -0.67186E-05  7636   0.771E-03    0.122E-01
RMM:  13     0.529077231818E+03    0.45097E-04   -0.19005E-05  6392   0.401E-03    0.211E-02
RMM:  14     0.529077219368E+03   -0.12450E-04   -0.29506E-06  5654   0.215E-03    0.140E-02
RMM:  15     0.529077195169E+03   -0.24199E-04   -0.13243E-06  5482   0.155E-03    0.753E-03
RMM:  16     0.529077178537E+03   -0.16633E-04   -0.53388E-07  4304   0.116E-03    0.193E-03
RMM:  17     0.529077162162E+03   -0.16374E-04    0.16042E-08  3655   0.907E-04    0.327E-03
RMM:  18     0.529077128486E+03   -0.33677E-04   -0.59934E-08  3717   0.899E-04    0.167E-03
RMM:  19     0.529077098780E+03   -0.29706E-04    0.33026E-08  3429   0.853E-04    0.319E-03
RMM:  20     0.529077066053E+03   -0.32727E-04   -0.21041E-08  3544   0.864E-04    0.277E-03
RMM:  21     0.529077038976E+03   -0.27077E-04    0.98638E-10  3673   0.898E-04    0.947E-04
RMM:  22     0.529077028880E+03   -0.10096E-04    0.20980E-07  3147   0.789E-04    0.128E-03
RMM:  23     0.529077021741E+03   -0.71392E-05    0.23455E-07  3267   0.791E-04
   3 F= 0.52907702E+03 E0= 0.52910623E+03  d E =-.385652E+03  mag=    -0.0010
       N       E                     dE             d eps       ncg     rms          rms(c)
DAV:   1     0.457507300473E+03   -0.71570E+02   -0.69580E+03 10852   0.131E+02    0.102E+02
RMM:   2    -0.534993211653E+02   -0.51101E+03   -0.15688E+03 10747   0.419E+01    0.183E+02
RMM:   3    -0.860681005749E+03   -0.80718E+03   -0.73688E+02 10465   0.179E+01    0.726E+02
RMM:   4    -0.967773521767E+03   -0.10709E+03   -0.16952E+02 11251   0.600E+00    0.765E+02
RMM:   5    -0.863756944096E+03    0.10402E+03   -0.38088E+01 10703   0.256E+00    0.773E+02
RMM:   6    -0.790429553553E+03    0.73327E+02   -0.10349E+01 10882   0.995E-01    0.782E+02
RMM:   7    -0.150766511246E+03    0.63966E+03   -0.42743E+01  9752   0.433E+00    0.560E+02
RMM:   8     0.123883028500E+02    0.16315E+03   -0.30726E+01 10008   0.391E+00    0.296E+02
RMM:   9     0.347593811938E+03    0.33521E+03   -0.97362E+01 10268   0.646E+00    0.244E+02
RMM:  10     0.364322536398E+03    0.16729E+02   -0.73003E+00 10498   0.201E+00    0.229E+02
RMM:  11     0.371060836088E+03    0.67383E+01   -0.33341E+00  9962   0.143E+00    0.175E+02
RMM:  12     0.376315434651E+03    0.52546E+01   -0.26288E+00  9730   0.152E+00    0.123E+02
RMM:  13     0.379009687994E+03    0.26943E+01   -0.35909E+00  9589   0.155E+00    0.688E+01
RMM:  14     0.380235336265E+03    0.12256E+01   -0.63018E-01  9943   0.691E-01    0.551E+01
RMM:  15     0.380490772680E+03    0.25544E+00   -0.24207E+00  9483   0.118E+00    0.201E+01
RMM:  16     0.382688891364E+03    0.21981E+01   -0.13595E+00  9667   0.858E-01    0.202E+01
RMM:  17     0.382746801422E+03    0.57910E-01   -0.10991E-01 10506   0.313E-01    0.238E+01
RMM:  18     0.383507797619E+03    0.76100E+00   -0.10578E-01  9609   0.273E-01    0.184E+01
RMM:  19     0.383693875320E+03    0.18608E+00   -0.38673E-02  9585   0.146E-01    0.147E+01
RMM:  20     0.383895285974E+03    0.20141E+00   -0.33631E-02  9534   0.146E-01    0.119E+01
RMM:  21     0.384003433396E+03    0.10815E+00   -0.38496E-02  9516   0.151E-01    0.727E+00
RMM:  22     0.384034489417E+03    0.31056E-01   -0.10794E-02  9819   0.756E-02    0.378E+00
RMM:  23     0.384092423978E+03    0.57935E-01   -0.81110E-03  9971   0.561E-02    0.136E+00
RMM:  24     0.384128718650E+03    0.36295E-01   -0.11781E-02  9437   0.579E-02    0.235E+00
RMM:  25     0.384142497546E+03    0.13779E-01   -0.10125E-02  9527   0.662E-02    0.234E+00
RMM:  26     0.384146941494E+03    0.44439E-02   -0.57095E-03  9619   0.477E-02    0.229E+00
RMM:  27     0.384147550173E+03    0.60868E-03   -0.33863E-03  9655   0.410E-02    0.723E-01
RMM:  28     0.384146789711E+03   -0.76046E-03   -0.16196E-03  9556   0.267E-02    0.349E-01
RMM:  29     0.384146663558E+03   -0.12615E-03   -0.14828E-04  8349   0.110E-02    0.447E-01
RMM:  30     0.384145268407E+03   -0.13952E-02   -0.43254E-04  8522   0.149E-02    0.207E-01
RMM:  31     0.384144959363E+03   -0.30904E-03   -0.82161E-05  7339   0.624E-03    0.370E-01
RMM:  32     0.384144165527E+03   -0.79384E-03   -0.30619E-05  6356   0.426E-03    0.348E-01
RMM:  33     0.384143476695E+03   -0.68883E-03   -0.55350E-05  6910   0.568E-03    0.224E-01
RMM:  34     0.384143301957E+03   -0.17474E-03   -0.19212E-05  6025   0.358E-03    0.105E-01
RMM:  35     0.384143200671E+03   -0.10129E-03   -0.10438E-05  5672   0.213E-03    0.785E-02
RMM:  36     0.384143110578E+03   -0.90092E-04   -0.38664E-06  5533   0.191E-03    0.635E-02
RMM:  37     0.384143047911E+03   -0.62668E-04   -0.79325E-07  4679   0.140E-03    0.351E-02
RMM:  38     0.384143008676E+03   -0.39234E-04   -0.28316E-07  4506   0.116E-03    0.266E-02
RMM:  39     0.384142992357E+03   -0.16320E-04   -0.27246E-07  4454   0.109E-03    0.120E-02
RMM:  40     0.384142966277E+03   -0.26080E-04    0.31761E-07  3436   0.872E-04    0.198E-03
RMM:  41     0.384142951025E+03   -0.15251E-04    0.43237E-07  2976   0.808E-04    0.320E-03
RMM:  42     0.384142939478E+03   -0.11548E-04    0.36991E-07  2834   0.785E-04    0.296E-03
RMM:  43     0.384142927211E+03   -0.12266E-04    0.46655E-07  3046   0.819E-04    0.260E-03
RMM:  44     0.384142922878E+03   -0.43334E-05    0.97592E-07  2650   0.747E-04
   4 F= 0.38414292E+03 E0= 0.38410528E+03  d E =-.144934E+03  mag=     0.0009
       N       E                     dE             d eps       ncg     rms          rms(c)
DAV:   1     0.378444887657E+03   -0.56980E+01   -0.20041E+03 10704   0.637E+01    0.430E+01
RMM:   2     0.350255013093E+03   -0.28190E+02   -0.21602E+02 10359   0.164E+01    0.424E+01
RMM:   3     0.207193636737E+03   -0.14306E+03   -0.31987E+01 10374   0.498E+00    0.220E+02
RMM:   4     0.255360155593E+03    0.48167E+02   -0.71823E+00 10066   0.235E+00    0.161E+02
RMM:   5     0.358340830278E+03    0.10298E+03   -0.15544E+01 10249   0.290E+00    0.176E+01
RMM:   6     0.362071605923E+03    0.37308E+01   -0.41599E+00 10418   0.137E+00    0.290E+01
RMM:   7     0.365300627694E+03    0.32290E+01   -0.68056E-01 10057   0.695E-01    0.699E+00
RMM:   8     0.365235295399E+03   -0.65332E-01   -0.23688E-01 10004   0.375E-01    0.109E+01
RMM:   9     0.365284567100E+03    0.49272E-01   -0.15432E-01  9889   0.302E-01    0.461E+00
RMM:  10     0.365419879611E+03    0.13531E+00   -0.64655E-02  9727   0.236E-01    0.365E+00
RMM:  11     0.365453080238E+03    0.33201E-01   -0.24376E-02  9731   0.165E-01    0.335E+00
RMM:  12     0.365459210532E+03    0.61303E-02   -0.66506E-03  9874   0.757E-02    0.368E+00
RMM:  13     0.365464313644E+03    0.51031E-02   -0.36994E-03  9866   0.516E-02    0.330E+00
RMM:  14     0.365466002519E+03    0.16889E-02   -0.13699E-03 10142   0.320E-02    0.219E+00
RMM:  15     0.365465837058E+03   -0.16546E-03   -0.22002E-04 10082   0.151E-02    0.173E+00
RMM:  16     0.365465923718E+03    0.86660E-04   -0.15944E-04  9055   0.130E-02    0.134E+00
RMM:  17     0.365466409790E+03    0.48607E-03   -0.16829E-04  9143   0.149E-02    0.857E-01
RMM:  18     0.365466908255E+03    0.49846E-03   -0.15046E-04  9139   0.130E-02    0.472E-01
RMM:  19     0.365467229893E+03    0.32164E-03   -0.14937E-04  8121   0.107E-02    0.329E-01
RMM:  20     0.365467221996E+03   -0.78969E-05   -0.16777E-04  8560   0.127E-02    0.263E-02
RMM:  21     0.365467210916E+03   -0.11080E-04   -0.12949E-05  6301   0.384E-03    0.649E-03
RMM:  22     0.365467189931E+03   -0.20985E-04   -0.31215E-06  5506   0.214E-03    0.168E-02
RMM:  23     0.365467176570E+03   -0.13360E-04   -0.15321E-06  4912   0.152E-03    0.164E-03
RMM:  24     0.365467163773E+03   -0.12797E-04   -0.93040E-07  4130   0.117E-03    0.130E-03
RMM:  25     0.365467151500E+03   -0.12273E-04   -0.97481E-07  4103   0.116E-03    0.632E-04
RMM:  26     0.365467148380E+03   -0.31196E-05   -0.35824E-07  3211   0.910E-04
   5 F= 0.36546715E+03 E0= 0.36545096E+03  d E =-.163610E+03  mag=     0.0002
       N       E                     dE             d eps       ncg     rms          rms(c)
DAV:   1     0.365212471444E+03   -0.25468E+00   -0.63671E+01 11048   0.109E+01    0.658E+00
RMM:   2     0.364354223550E+03   -0.85825E+00   -0.51849E+00 10332   0.245E+00    0.830E+00
RMM:   3     0.362456433001E+03   -0.18978E+01   -0.50263E-01 10262   0.642E-01    0.239E+01
RMM:   4     0.363433930577E+03    0.97750E+00   -0.45422E-01  9883   0.514E-01    0.122E+01
RMM:   5     0.364620994228E+03    0.11871E+01   -0.47192E-01 10007   0.526E-01    0.351E+00
RMM:   6     0.364886914768E+03    0.26592E+00   -0.21241E-01 10313   0.346E-01    0.135E+00
RMM:   7     0.364907620947E+03    0.20706E-01   -0.16078E-02  9851   0.113E-01    0.104E+00
RMM:   8     0.364913994926E+03    0.63740E-02   -0.34548E-03 10024   0.489E-02    0.679E-01
RMM:   9     0.364908586606E+03   -0.54083E-02   -0.38913E-03  9591   0.573E-02    0.114E+00
RMM:  10     0.364915340123E+03    0.67535E-02   -0.87520E-04  9878   0.244E-02    0.278E-01
RMM:  11     0.364915169545E+03   -0.17058E-03   -0.79997E-05  8552   0.866E-03    0.252E-01
RMM:  12     0.364915356534E+03    0.18699E-03   -0.43269E-05  7665   0.729E-03    0.182E-01
RMM:  13     0.364915362219E+03    0.56849E-05   -0.54582E-05  7746   0.777E-03
   6 F= 0.36491536E+03 E0= 0.36489590E+03  d E =-.164162E+03  mag=     0.0001
       N       E                     dE             d eps       ncg     rms          rms(c)
DAV:   1     0.355923083380E+03   -0.89923E+01   -0.53906E+02 11112   0.318E+01    0.735E+00
RMM:   2     0.350832936465E+03   -0.50901E+01   -0.50425E+01 10329   0.724E+00    0.972E+00
RMM:   3     0.350729463870E+03   -0.10347E+00   -0.31790E+00 10549   0.170E+00    0.170E+01
RMM:   4     0.347621017582E+03   -0.31084E+01   -0.12393E+00 10101   0.843E-01    0.216E+01
RMM:   5     0.351887256773E+03    0.42662E+01   -0.78567E-01 10157   0.612E-01    0.324E+00
RMM:   6     0.351965891449E+03    0.78635E-01   -0.17217E-01 10113   0.372E-01    0.209E+00
RMM:   7     0.351998581638E+03    0.32690E-01   -0.34430E-02 10045   0.177E-01    0.102E+00
RMM:   8     0.351979849201E+03   -0.18732E-01   -0.20805E-02 10262   0.131E-01    0.185E+00
RMM:   9     0.352005219214E+03    0.25370E-01   -0.10879E-02 10364   0.805E-02    0.411E-01
RMM:  10     0.352006244186E+03    0.10250E-02   -0.11167E-03  9802   0.309E-02    0.328E-01
RMM:  11     0.352006374242E+03    0.13006E-03   -0.58031E-04  9304   0.206E-02    0.273E-01
RMM:  12     0.352006822406E+03    0.44816E-03   -0.21844E-04  8917   0.122E-02    0.122E-01
RMM:  13     0.352006866887E+03    0.44481E-04   -0.76252E-05  7777   0.726E-03    0.651E-02
RMM:  14     0.352006739530E+03   -0.12736E-03   -0.31497E-05  6955   0.516E-03    0.976E-02
RMM:  15     0.352006701491E+03   -0.38039E-04   -0.32623E-06  5749   0.315E-03    0.607E-02
RMM:  16     0.352006618405E+03   -0.83086E-04    0.17150E-06  5527   0.185E-03    0.281E-02
RMM:  17     0.352006559065E+03   -0.59341E-04    0.70352E-06  5032   0.144E-03    0.126E-02
RMM:  18     0.352006482972E+03   -0.76093E-04    0.94152E-06  5558   0.175E-03    0.695E-03
RMM:  19     0.352006414296E+03   -0.68675E-04    0.16543E-05  4575   0.130E-03    0.114E-02
RMM:  20     0.352006388134E+03   -0.26163E-04    0.27981E-05  3977   0.103E-03    0.799E-03
RMM:  21     0.352006375074E+03   -0.13060E-04    0.43201E-05  4086   0.984E-04    0.438E-03
RMM:  22     0.352006368335E+03   -0.67386E-05    0.67173E-05  3519   0.845E-04
   7 F= 0.35200637E+03 E0= 0.35199522E+03  d E =-.129090E+02  mag=     0.0000
       N       E                     dE             d eps       ncg     rms          rms(c)
DAV:   1     0.394105766904E+03    0.42099E+02   -0.48235E+03 11248   0.103E+02    0.247E+01
RMM:   2     0.283510302671E+03   -0.11060E+03   -0.75204E+02 10354   0.262E+01    0.741E+01
RMM:   3     0.318552689089E+03    0.35042E+02   -0.36981E+01 10373   0.607E+00    0.526E+01
RMM:   4     0.323416944645E+03    0.48643E+01   -0.52949E+00 10103   0.201E+00    0.468E+01
RMM:   5     0.316575305339E+03   -0.68416E+01   -0.28417E+00  9944   0.124E+00    0.435E+01
RMM:   6     0.333974882614E+03    0.17400E+02   -0.26826E+00 10087   0.121E+00    0.570E+00
RMM:   7     0.333791799721E+03   -0.18308E+00   -0.54941E-01 10251   0.556E-01    0.176E+01
RMM:   8     0.333811608390E+03    0.19809E-01   -0.22402E-02 11132   0.130E-01    0.174E+01
RMM:   9     0.334159979959E+03    0.34837E+00   -0.51402E-02  9804   0.192E-01    0.126E+01
RMM:  10     0.334210344146E+03    0.50364E-01   -0.39626E-01  9795   0.550E-01    0.414E+00
RMM:  11     0.334254839591E+03    0.44495E-01   -0.24831E-01  9975   0.409E-01    0.441E+00
RMM:  12     0.334233048023E+03   -0.21792E-01   -0.59592E-02 10042   0.219E-01    0.536E+00
RMM:  13     0.334385201942E+03    0.15215E+00   -0.20198E-02  9907   0.125E-01    0.336E+00
RMM:  14     0.334400432343E+03    0.15230E-01   -0.61869E-03 10055   0.621E-02    0.306E+00
RMM:  15     0.334412078966E+03    0.11647E-01   -0.36375E-03  9642   0.488E-02    0.242E+00
RMM:  16     0.334429100191E+03    0.17021E-01   -0.97325E-03  9492   0.834E-02    0.969E-01
RMM:  17     0.334432351840E+03    0.32516E-02   -0.40455E-03  9763   0.512E-02    0.246E-01
RMM:  18     0.334432391179E+03    0.39339E-04   -0.22980E-04  9757   0.135E-02    0.225E-01
RMM:  19     0.334432385443E+03   -0.57357E-05   -0.75950E-05  8228   0.782E-03
   8 F= 0.33443239E+03 E0= 0.33444874E+03  d E =-.304830E+02  mag=     0.0003
       N       E                     dE             d eps       ncg     rms          rms(c)
DAV:   1     0.334786940151E+03    0.35455E+00   -0.10563E+02 11224   0.138E+01    0.278E+00
RMM:   2     0.333834396571E+03   -0.95254E+00   -0.92492E+00 10372   0.301E+00    0.506E+00
RMM:   3     0.333730880623E+03   -0.10352E+00   -0.44561E-01 10771   0.632E-01    0.691E+00
RMM:   4     0.333980423566E+03    0.24954E+00   -0.18987E-01 10015   0.344E-01    0.280E+00
RMM:   5     0.334029748985E+03    0.49325E-01   -0.57867E-02 10278   0.182E-01    0.236E+00
RMM:   6     0.334076746778E+03    0.46998E-01   -0.31086E-02 10150   0.135E-01    0.804E-01
RMM:   7     0.334088484970E+03    0.11738E-01   -0.78166E-03 10162   0.773E-02    0.302E-01
RMM:   8     0.334089000762E+03    0.51579E-03   -0.15875E-03 10216   0.380E-02    0.149E-01
RMM:   9     0.334088400003E+03   -0.60076E-03   -0.49605E-04  9737   0.193E-02    0.301E-01
RMM:  10     0.334088999375E+03    0.59937E-03   -0.16387E-04  8743   0.112E-02    0.817E-02
RMM:  11     0.334088957138E+03   -0.42237E-04   -0.49157E-05  7750   0.660E-03    0.258E-02
RMM:  12     0.334088908293E+03   -0.48845E-04   -0.72979E-06  5782   0.268E-03    0.166E-02
RMM:  13     0.334088815035E+03   -0.93258E-04   -0.40490E-06  5238   0.173E-03    0.225E-02
RMM:  14     0.334088727357E+03   -0.87679E-04   -0.32505E-06  5097   0.141E-03    0.417E-03
RMM:  15     0.334088671256E+03   -0.56100E-04   -0.16304E-06  4057   0.106E-03    0.530E-03
RMM:  16     0.334088596727E+03   -0.74529E-04   -0.35540E-06  4985   0.139E-03    0.398E-03
RMM:  17     0.334088571209E+03   -0.25519E-04   -0.10742E-06  3809   0.997E-04    0.943E-04
RMM:  18     0.334088559155E+03   -0.12054E-04   -0.49454E-07  4327   0.104E-03    0.896E-04
RMM:  19     0.334088554846E+03   -0.43092E-05   -0.14944E-07  3020   0.736E-04
   9 F= 0.33408855E+03 E0= 0.33411868E+03  d E =-.308268E+02  mag=     0.0000
       N       E                     dE             d eps       ncg     rms          rms(c)
DAV:   1     0.340590084094E+03    0.65015E+01   -0.17543E+03 11408   0.593E+01    0.140E+01
RMM:   2     0.314846869660E+03   -0.25743E+02   -0.20991E+02 10294   0.144E+01    0.271E+01
RMM:   3     0.304601769063E+03   -0.10245E+02   -0.13359E+01 10325   0.358E+00    0.604E+01
RMM:   4     0.316101908146E+03    0.11500E+02   -0.30717E+00 10265   0.137E+00    0.164E+01
RMM:   5     0.317419597327E+03    0.13177E+01   -0.19923E+00  9980   0.985E-01    0.331E+01
RMM:   6     0.320291173266E+03    0.28716E+01   -0.46124E-01 10022   0.602E-01    0.106E+01
RMM:   7     0.320432930028E+03    0.14176E+00   -0.40326E-01 10381   0.441E-01    0.781E+00
RMM:   8     0.320893417739E+03    0.46049E+00   -0.65835E-02 10066   0.214E-01    0.172E+00
RMM:   9     0.320915351058E+03    0.21933E-01   -0.33828E-02  9947   0.144E-01    0.132E+00
RMM:  10     0.320911047717E+03   -0.43033E-02   -0.16902E-02 10022   0.115E-01    0.120E+00
RMM:  11     0.320921709798E+03    0.10662E-01   -0.11945E-02 10178   0.943E-02    0.613E-01
RMM:  12     0.320923058548E+03    0.13488E-02   -0.25294E-03 10111   0.375E-02    0.405E-01
RMM:  13     0.320923365414E+03    0.30687E-03   -0.91059E-04  9765   0.256E-02    0.306E-01
RMM:  14     0.320923906770E+03    0.54136E-03   -0.10153E-04  8656   0.914E-03    0.180E-01
RMM:  15     0.320923862166E+03   -0.44604E-04   -0.53011E-05  7558   0.689E-03    0.128E-01
RMM:  16     0.320923666017E+03   -0.19615E-03   -0.41456E-05  6741   0.637E-03    0.669E-02
RMM:  17     0.320923598962E+03   -0.67055E-04   -0.65722E-06  5679   0.294E-03    0.376E-02
RMM:  18     0.320923427796E+03   -0.17117E-03   -0.10161E-05  5854   0.304E-03    0.855E-03
RMM:  19     0.320923249468E+03   -0.17833E-03   -0.87872E-06  5745   0.253E-03    0.137E-02
RMM:  20     0.320923190963E+03   -0.58505E-04   -0.18817E-06  4779   0.142E-03    0.129E-02
RMM:  21     0.320923136833E+03   -0.54130E-04   -0.14705E-06  4708   0.127E-03    0.879E-03
RMM:  22     0.320923088919E+03   -0.47914E-04   -0.15503E-06  4972   0.136E-03    0.648E-03
RMM:  23     0.320923068680E+03   -0.20239E-04   -0.78892E-07  4721   0.126E-03    0.166E-03
RMM:  24     0.320923063836E+03   -0.48443E-05   -0.26440E-07  3541   0.904E-04
  10 F= 0.32092306E+03 E0= 0.32094420E+03  d E =-.131655E+02  mag=     0.0000
       N       E                     dE             d eps       ncg     rms          rms(c)
DAV:   1     0.653399531389E+03    0.33248E+03   -0.16664E+04 11520   0.210E+02    0.574E+01
RMM:   2    -0.289070069840E+03   -0.94247E+03   -0.49169E+03 10934   0.635E+01    0.218E+02
RMM:   3    -0.133137671861E+02    0.27576E+03   -0.31610E+02 10265   0.174E+01    0.332E+02
RMM:   4    -0.125268811695E+02    0.78689E+00   -0.19940E+01 11374   0.391E+00    0.336E+02
RMM:   5    -0.146617195596E+03   -0.13409E+03   -0.17031E+01 10131   0.257E+00    0.466E+02
RMM:   6     0.173753616973E+03    0.32037E+03   -0.38953E+01  9940   0.398E+00    0.113E+02
RMM:   7     0.288673952387E+03    0.11492E+03   -0.46026E+01 10008   0.490E+00    0.180E+01
RMM:   8     0.287068192498E+03   -0.16058E+01   -0.59520E+00 10120   0.194E+00    0.389E+01
RMM:   9     0.289994508417E+03    0.29263E+01   -0.28820E+00 10032   0.141E+00    0.259E+01
RMM:  10     0.293424122964E+03    0.34296E+01   -0.14118E+00 10177   0.122E+00    0.106E+01
RMM:  11     0.293914049347E+03    0.48993E+00   -0.72385E-01  9884   0.809E-01    0.863E+00
RMM:  12     0.294036907935E+03    0.12286E+00   -0.33382E-01 10101   0.545E-01    0.842E+00
RMM:  13     0.293808404526E+03   -0.22850E+00   -0.37033E-01  9776   0.579E-01    0.101E+01
RMM:  14     0.293256848496E+03   -0.55156E+00   -0.20202E-01  9841   0.373E-01    0.131E+01
RMM:  15     0.293087771920E+03   -0.16908E+00   -0.11875E-01  9782   0.336E-01    0.133E+01
RMM:  16     0.292744495129E+03   -0.34328E+00   -0.69477E-02  9701   0.267E-01    0.147E+01
RMM:  17     0.292579011243E+03   -0.16548E+00   -0.17506E-02 10195   0.129E-01    0.152E+01
RMM:  18     0.292715122652E+03    0.13611E+00   -0.42494E-03  9579   0.646E-02    0.149E+01
RMM:  19     0.292630787316E+03   -0.84335E-01   -0.20898E-03  9837   0.455E-02    0.151E+01
RMM:  20     0.293578750978E+03    0.94796E+00   -0.43602E-01  9392   0.647E-01    0.122E+01
RMM:  21     0.293939988168E+03    0.36124E+00   -0.18584E-01  9500   0.432E-01    0.107E+01
RMM:  22     0.294004390751E+03    0.64403E-01   -0.21438E-02 10312   0.141E-01    0.101E+01
RMM:  23     0.294091972033E+03    0.87581E-01   -0.20875E-02  9482   0.148E-01    0.873E+00
RMM:  24     0.294113009203E+03    0.21037E-01   -0.82086E-03  9627   0.900E-02    0.822E+00
RMM:  25     0.294111592885E+03   -0.14163E-02   -0.76500E-04 10509   0.267E-02    0.798E+00
RMM:  26     0.294106949722E+03   -0.46432E-02   -0.47142E-04  9058   0.177E-02    0.779E+00
RMM:  27     0.294112683760E+03    0.57340E-02   -0.14724E-03  9352   0.333E-02    0.728E+00
RMM:  28     0.294123786265E+03    0.11103E-01   -0.14308E-03  9438   0.301E-02    0.664E+00
RMM:  29     0.294126537608E+03    0.27513E-02   -0.19309E-04  8771   0.118E-02    0.621E+00
RMM:  30     0.294132823004E+03    0.62854E-02   -0.62639E-04  9438   0.243E-02    0.539E+00
RMM:  31     0.294140385741E+03    0.75627E-02   -0.61651E-04  9419   0.241E-02    0.493E+00
RMM:  32     0.294147227902E+03    0.68422E-02   -0.10982E-03  9469   0.315E-02    0.429E+00
RMM:  33     0.294152276947E+03    0.50490E-02   -0.11373E-03  9482   0.323E-02    0.354E+00
RMM:  34     0.294158686440E+03    0.64095E-02   -0.18116E-03  9491   0.424E-02    0.263E+00
RMM:  35     0.294162426112E+03    0.37397E-02   -0.83903E-04  9649   0.306E-02    0.209E+00
RMM:  36     0.294165160106E+03    0.27340E-02   -0.29173E-04  9670   0.221E-02    0.169E+00
RMM:  37     0.294168708539E+03    0.35484E-02   -0.21105E-04  9501   0.225E-02    0.122E+00
RMM:  38     0.294170326102E+03    0.16176E-02    0.27053E-04  9283   0.144E-02    0.941E-01
RMM:  39     0.294171276151E+03    0.95005E-03    0.52271E-04  8986   0.125E-02    0.677E-01
RMM:  40     0.294171397489E+03    0.12134E-03    0.99735E-04  8648   0.111E-02    0.444E-01
RMM:  41     0.294170703179E+03   -0.69431E-03    0.10732E-03  8113   0.922E-03    0.276E-01
RMM:  42     0.294169493606E+03   -0.12096E-02    0.51751E-04  7536   0.797E-03    0.141E-01
RMM:  43     0.294168551828E+03   -0.94178E-03    0.13513E-04  6355   0.560E-03    0.776E-02
RMM:  44     0.294167881585E+03   -0.67024E-03    0.18671E-04  5851   0.410E-03    0.487E-02
RMM:  45     0.294167524265E+03   -0.35732E-03   -0.73232E-06  5713   0.269E-03    0.365E-02
RMM:  46     0.294167257607E+03   -0.26666E-03   -0.45726E-06  5580   0.195E-03    0.205E-02
RMM:  47     0.294167129309E+03   -0.12830E-03   -0.21405E-06  5444   0.158E-03    0.202E-03
RMM:  48     0.294167039958E+03   -0.89351E-04   -0.83930E-07  4146   0.116E-03    0.200E-03
RMM:  49     0.294166991031E+03   -0.48927E-04   -0.31496E-07  3820   0.109E-03    0.158E-03
RMM:  50     0.294166965855E+03   -0.25176E-04   -0.50467E-08  3807   0.105E-03    0.669E-04
RMM:  51     0.294166959931E+03   -0.59248E-05    0.23612E-07  3134   0.877E-04
  11 F= 0.29416696E+03 E0= 0.29417575E+03  d E =-.399216E+02  mag=     0.0001
       N       E                     dE             d eps       ncg     rms          rms(c)
DAV:   1     0.170748009131E+04    0.14133E+04   -0.52905E+04 11296   0.351E+02    0.162E+02
RMM:   2    -0.520757228327E+04   -0.69151E+04   -0.31160E+04 13721   0.156E+02    0.495E+02
RMM:   3     0.150653507560E+03    0.53582E+04   -0.20523E+03 10332   0.433E+01    0.107E+02
RMM:   4    -0.267187077322E+03   -0.41784E+03   -0.97177E+02 10439   0.215E+01    0.165E+02
RMM:   5     0.271768464178E+03    0.53896E+03   -0.31952E+02 10359   0.118E+01    0.647E+01
RMM:   6     0.301398020366E+03    0.29630E+02   -0.33122E+01 10627   0.417E+00    0.484E+01
RMM:   7     0.292277950940E+03   -0.91201E+01   -0.37648E+01 10110   0.265E+00    0.489E+01
RMM:   8     0.295720756097E+03    0.34428E+01   -0.92182E+00 10448   0.117E+00    0.537E+01
RMM:   9     0.292363642385E+03   -0.33571E+01   -0.13138E+01 10448   0.612E-01    0.561E+01
RMM:  10     0.298038500725E+03    0.56749E+01   -0.15814E+01 10046   0.147E+00    0.433E+01
RMM:  11     0.304346750800E+03    0.63083E+01   -0.20572E+01 10120   0.156E+00    0.561E+01
RMM:  12     0.302615792344E+03   -0.17310E+01   -0.40080E+00 10462   0.697E-01    0.453E+01
RMM:  13     0.305885043426E+03    0.32693E+01   -0.63898E-01 10058   0.701E-01    0.195E+01
RMM:  14     0.306907659215E+03    0.10226E+01   -0.50264E-01 10084   0.547E-01    0.140E+01
RMM:  15     0.307261952830E+03    0.35429E+00    0.92690E-02 10343   0.367E-01    0.768E+00
RMM:  16     0.307499013243E+03    0.23706E+00   -0.21838E-01 10137   0.338E-01    0.701E+00
RMM:  17     0.307449975214E+03   -0.49038E-01    0.24495E-02 10285   0.286E-01    0.100E+01
RMM:  18     0.307010260335E+03   -0.43971E+00    0.64850E+00 10097   0.529E-01    0.183E+01
RMM:  19     0.307448886183E+03    0.43863E+00    0.32156E+00 10470   0.295E-01    0.988E+00
RMM:  20     0.307678781744E+03    0.22990E+00    0.39036E-02 10295   0.188E-01    0.533E+00
RMM:  21     0.307613792142E+03   -0.64990E-01    0.39704E-02 10476   0.135E-01    0.839E+00
RMM:  22     0.307732985993E+03    0.11919E+00   -0.37125E-02 10381   0.113E-01    0.548E+00
RMM:  23     0.307803795435E+03    0.70809E-01    0.10836E+01 10423   0.158E-01    0.411E+00
RMM:  24     0.307817853364E+03    0.14058E-01    0.60068E-01 10541   0.106E-01    0.295E+00
RMM:  25     0.307800416994E+03   -0.17436E-01    0.15360E+01 10496   0.149E-01    0.192E+00
RMM:  26     0.307812597895E+03    0.12181E-01    0.28098E-01  9405   0.743E-02    0.198E+00
RMM:  27     0.307823093799E+03    0.10496E-01    0.89478E-02 10266   0.585E-02    0.129E+00
RMM:  28     0.307828216103E+03    0.51223E-02    0.22981E-02 10314   0.609E-02    0.650E-01
RMM:  29     0.307827795279E+03   -0.42082E-03    0.10024E-02 10470   0.494E-02    0.835E-01
RMM:  30     0.307826993142E+03   -0.80214E-03   -0.51108E-02  8772   0.331E-02    0.499E-01
RMM:  31     0.307823778181E+03   -0.32150E-02   -0.11191E-01  8115   0.313E-02    0.357E-01
RMM:  32     0.307814978563E+03   -0.87996E-02   -0.15604E-02  8288   0.358E-02    0.253E-02
RMM:  33     0.307770862327E+03   -0.44116E-01    0.10131E+00  7515   0.594E-02    0.105E+00
RMM:  34     0.301274461876E+03   -0.64964E+01   -0.52119E+01  7498   0.210E-01    0.186E+00
RMM:  35     0.299029373437E+03   -0.22451E+01   -0.20184E+01  7377   0.191E-01    0.244E+00
RMM:  36     0.296169596461E+03   -0.28598E+01   -0.25230E+01  7214   0.245E-01    0.281E+00
RMM:  37     0.296613953340E+03    0.44436E+00   -0.11326E+00  6715   0.533E-02    0.281E+00
RMM:  38     0.296611935998E+03   -0.20173E-02   -0.51476E-02  5712   0.130E-02    0.279E+00
RMM:  39     0.296611180117E+03   -0.75588E-03   -0.74274E-03  4111   0.415E-03    0.280E+00
RMM:  40     0.296610879051E+03   -0.30107E-03   -0.16030E-03  4207   0.205E-03    0.281E+00
RMM:  41     0.296610730776E+03   -0.14827E-03   -0.29948E-04  5389   0.219E-03    0.281E+00
RMM:  42     0.296610875930E+03    0.14515E-03   -0.10035E-04  4835   0.166E-03    0.281E+00
RMM:  43     0.296610962391E+03    0.86461E-04   -0.14754E-05  3165   0.906E-04    0.280E+00
RMM:  44     0.296610968339E+03    0.59481E-05   -0.62946E-06  2947   0.768E-04
  12 F= 0.29661097E+03 E0= 0.29664383E+03  d E =-.374776E+02  mag=    -0.0387
       N       E                     dE             d eps       ncg     rms          rms(c)
DAV:   1     0.699665993250E+03    0.40306E+03   -0.19126E+04 11024   0.221E+02    0.374E+01
RMM:   2    -0.121957262667E+03   -0.82162E+03   -0.53365E+03 10719   0.665E+01    0.194E+02
RMM:   3     0.216054270666E+03    0.33801E+03   -0.21847E+02 10537   0.143E+01    0.751E+01
RMM:   4     0.241087641864E+03    0.25033E+02   -0.52102E+01 10199   0.601E+00    0.779E+01
RMM:   5     0.250971241500E+03    0.98836E+01   -0.24909E+00 10937   0.146E+00    0.729E+01
RMM:   6     0.242541327097E+03   -0.84299E+01   -0.68324E+00  9838   0.216E+00    0.705E+01
RMM:   7     0.277232245903E+03    0.34691E+02   -0.12321E+01  9985   0.297E+00    0.314E+01
RMM:   8     0.283042418279E+03    0.58102E+01   -0.35213E+00 10004   0.145E+00    0.221E+01
RMM:   9     0.284959168831E+03    0.19168E+01   -0.47517E-01 10206   0.670E-01    0.149E+01
RMM:  10     0.285779892375E+03    0.82072E+00   -0.47888E-01  9519   0.586E-01    0.135E+01
RMM:  11     0.285940702522E+03    0.16081E+00   -0.64120E-02 10217   0.228E-01    0.121E+01
RMM:  12     0.286276781862E+03    0.33608E+00   -0.22414E-01  9606   0.400E-01    0.107E+01
RMM:  13     0.286513584256E+03    0.23680E+00   -0.14286E-01  9486   0.340E-01    0.860E+00
RMM:  14     0.286605757349E+03    0.92173E-01   -0.62403E-02  9863   0.190E-01    0.717E+00
RMM:  15     0.286599573590E+03   -0.61838E-02   -0.60303E-03 10594   0.719E-02    0.689E+00
RMM:  16     0.286626509136E+03    0.26936E-01   -0.14020E-02  9445   0.101E-01    0.498E+00
RMM:  17     0.286637229473E+03    0.10720E-01   -0.55985E-03  9756   0.575E-02    0.392E+00
RMM:  18     0.286641323919E+03    0.40944E-02   -0.27432E-03  9567   0.441E-02    0.287E+00
RMM:  19     0.286642607778E+03    0.12839E-02   -0.17193E-03  9730   0.332E-02    0.245E+00
RMM:  20     0.286647010112E+03    0.44023E-02   -0.36737E-03  9479   0.453E-02    0.120E+00
RMM:  21     0.286649453239E+03    0.24431E-02   -0.26866E-03  9422   0.359E-02    0.211E-01
RMM:  22     0.286649522997E+03    0.69757E-04   -0.50375E-04  9407   0.148E-02    0.104E-01
RMM:  23     0.286649137700E+03   -0.38530E-03   -0.18676E-04  7854   0.108E-02    0.130E-01
RMM:  24     0.286649045704E+03   -0.91996E-04   -0.15270E-04  7430   0.785E-03    0.420E-02
RMM:  25     0.286648805537E+03   -0.24017E-03   -0.12687E-04  6761   0.668E-03    0.133E-01
RMM:  26     0.286648622656E+03   -0.18288E-03   -0.57010E-05  5953   0.349E-03    0.141E-01
RMM:  27     0.286648593483E+03   -0.29174E-04   -0.22827E-05  6087   0.364E-03    0.294E-02
RMM:  28     0.286648545373E+03   -0.48110E-04   -0.85469E-06  5667   0.227E-03    0.217E-02
RMM:  29     0.286648517574E+03   -0.27799E-04   -0.19027E-06  4745   0.126E-03    0.998E-03
RMM:  30     0.286648485743E+03   -0.31831E-04   -0.12893E-06  4070   0.103E-03    0.189E-02
RMM:  31     0.286648463839E+03   -0.21904E-04   -0.72082E-07  4180   0.100E-03    0.607E-03
RMM:  32     0.286648452328E+03   -0.11511E-04   -0.35443E-07  3239   0.814E-04    0.231E-03
RMM:  33     0.286648447238E+03   -0.50900E-05   -0.24324E-07  2987   0.769E-04
  13 F= 0.28664845E+03 E0= 0.28669502E+03  d E =-.474401E+02  mag=     0.0010
       N       E                     dE             d eps       ncg     rms          rms(c)
DAV:   1     0.302485929184E+03    0.15837E+02   -0.23854E+03 11232   0.688E+01    0.121E+01
RMM:   2     0.272261896479E+03   -0.30224E+02   -0.29999E+02 10287   0.163E+01    0.906E+00
RMM:   3     0.268870627003E+03   -0.33913E+01   -0.15291E+01 10406   0.379E+00    0.285E+01
RMM:   4     0.268794485186E+03   -0.76142E-01   -0.27560E+00 10140   0.150E+00    0.325E+01
RMM:   5     0.273564490432E+03    0.47700E+01   -0.34600E-01 10379   0.471E-01    0.149E+01
RMM:   6     0.273697582318E+03    0.13309E+00   -0.97653E-02  9817   0.273E-01    0.130E+01
RMM:   7     0.273610283607E+03   -0.87299E-01   -0.21506E-01 10027   0.356E-01    0.137E+01
RMM:   8     0.274374162948E+03    0.76388E+00   -0.24104E-01  9880   0.399E-01    0.462E+00
RMM:   9     0.274471983239E+03    0.97820E-01   -0.18070E-02 10390   0.118E-01    0.326E+00
RMM:  10     0.274469819691E+03   -0.21635E-02   -0.99252E-04 10473   0.308E-02    0.338E+00
RMM:  11     0.274518486941E+03    0.48667E-01   -0.14695E-02  9911   0.103E-01    0.845E-01
RMM:  12     0.274522435166E+03    0.39482E-02   -0.30673E-03 10233   0.454E-02    0.467E-01
RMM:  13     0.274522361454E+03   -0.73712E-04   -0.46604E-04  9741   0.192E-02    0.409E-01
RMM:  14     0.274523491398E+03    0.11299E-02   -0.11096E-03  9815   0.264E-02    0.178E-01
RMM:  15     0.274523419536E+03   -0.71861E-04   -0.80533E-05  8345   0.839E-03    0.131E-01
RMM:  16     0.274523353904E+03   -0.65632E-04   -0.30328E-05  7145   0.514E-03    0.692E-02
RMM:  17     0.274523190551E+03   -0.16335E-03   -0.21791E-05  6163   0.438E-03    0.364E-02
RMM:  18     0.274523067275E+03   -0.12328E-03   -0.91440E-06  5771   0.288E-03    0.136E-02
RMM:  19     0.274522919229E+03   -0.14805E-03   -0.10117E-05  5762   0.268E-03    0.172E-02
RMM:  20     0.274522857936E+03   -0.61294E-04   -0.25325E-06  5206   0.160E-03    0.148E-02
RMM:  21     0.274522764704E+03   -0.93231E-04   -0.43216E-06  5534   0.172E-03    0.753E-03
RMM:  22     0.274522725176E+03   -0.39528E-04   -0.14218E-06  4714   0.132E-03    0.783E-03
RMM:  23     0.274522705663E+03   -0.19513E-04   -0.10455E-06  5050   0.133E-03    0.389E-03
RMM:  24     0.274522700359E+03   -0.53042E-05   -0.30380E-07  3436   0.843E-04
  14 F= 0.27452270E+03 E0= 0.27455799E+03  d E =-.121257E+02  mag=     0.0001
       N       E                     dE             d eps       ncg     rms          rms(c)
DAV:   1     0.772429124803E+03    0.49791E+03   -0.22586E+04 11032   0.239E+02    0.452E+01
RMM:   2    -0.491458828301E+03   -0.12639E+04   -0.74353E+03 11148   0.759E+01    0.253E+02
RMM:   3     0.231714867403E+03    0.72317E+03   -0.26386E+02 10240   0.167E+01    0.358E+01
RMM:   4     0.208203207977E+03   -0.23512E+02   -0.49182E+01 10204   0.589E+00    0.585E+01
RMM:   5     0.236482392041E+03    0.28279E+02   -0.93839E+00 10274   0.251E+00    0.475E+01
RMM:   6     0.218451204988E+03   -0.18031E+02   -0.17665E+00 10675   0.101E+00    0.630E+01
RMM:   7     0.246754981699E+03    0.28304E+02   -0.55283E+00  9782   0.207E+00    0.183E+01
RMM:   8     0.252225580633E+03    0.54706E+01   -0.42896E+00  9874   0.167E+00    0.775E+00
RMM:   9     0.251122857800E+03   -0.11027E+01   -0.77018E-01 10214   0.742E-01    0.219E+01
RMM:  10     0.251161729167E+03    0.38871E-01   -0.37876E-02 10860   0.174E-01    0.219E+01
RMM:  11     0.250800902140E+03   -0.36083E+00   -0.30283E-02  9550   0.137E-01    0.247E+01
RMM:  12     0.250334040169E+03   -0.46686E+00   -0.25526E+00  9464   0.118E+00    0.174E+01
RMM:  13     0.252649501335E+03    0.23155E+01   -0.51459E-01 10037   0.535E-01    0.408E+00
RMM:  14     0.252509677764E+03   -0.13982E+00   -0.21515E-01  9639   0.325E-01    0.582E+00
RMM:  15     0.252731013837E+03    0.22134E+00   -0.97755E-02  9809   0.237E-01    0.364E+00
RMM:  16     0.252756917307E+03    0.25903E-01   -0.22760E-02  9762   0.131E-01    0.194E+00
RMM:  17     0.252763568228E+03    0.66509E-02   -0.23475E-03 10364   0.442E-02    0.165E+00
RMM:  18     0.252766117516E+03    0.25493E-02   -0.84188E-04  9507   0.263E-02    0.150E+00
RMM:  19     0.252766310394E+03    0.19288E-03   -0.56847E-04  8893   0.194E-02    0.117E+00
RMM:  20     0.252767059900E+03    0.74951E-03   -0.13953E-04  8096   0.984E-03    0.106E+00
RMM:  21     0.252767290147E+03    0.23025E-03   -0.21470E-04  8602   0.141E-02    0.719E-01
RMM:  22     0.252767829804E+03    0.53966E-03   -0.16735E-04  7931   0.105E-02    0.434E-01
RMM:  23     0.252767986475E+03    0.15667E-03   -0.18163E-04  8130   0.102E-02    0.241E-01
RMM:  24     0.252767955001E+03   -0.31475E-04   -0.13880E-04  7589   0.837E-03    0.876E-02
RMM:  25     0.252767783056E+03   -0.17194E-03   -0.42516E-05  6667   0.483E-03    0.568E-02
RMM:  26     0.252767610155E+03   -0.17290E-03   -0.21798E-05  6078   0.327E-03    0.344E-02
RMM:  27     0.252767444268E+03   -0.16589E-03   -0.78158E-06  5552   0.212E-03    0.272E-02
RMM:  28     0.252767329943E+03   -0.11433E-03   -0.53168E-06  5434   0.174E-03    0.230E-02
RMM:  29     0.252767281827E+03   -0.48115E-04   -0.18219E-06  4998   0.130E-03    0.266E-02
RMM:  30     0.252767246103E+03   -0.35724E-04   -0.18657E-06  4599   0.120E-03    0.948E-03
RMM:  31     0.252767233088E+03   -0.13015E-04   -0.76710E-07  4116   0.101E-03    0.108E-02
RMM:  32     0.252767225919E+03   -0.71692E-05   -0.24339E-07  2999   0.776E-04
  15 F= 0.25276723E+03 E0= 0.25275568E+03  d E =-.338812E+02  mag=     0.0002
       N       E                     dE             d eps       ncg     rms          rms(c)
DAV:   1     0.196486531627E+04    0.17121E+04   -0.66233E+04 11184   0.368E+02    0.123E+02
RMM:   2    -0.633482318449E+04   -0.82997E+04   -0.39880E+04 14006   0.168E+02    0.588E+02
RMM:   3    -0.852344853751E+03    0.54825E+04   -0.35882E+03 11863   0.495E+01    0.279E+02
RMM:   4    -0.159399414195E+03    0.69295E+03   -0.17099E+03 10579   0.280E+01    0.137E+02
RMM:   5     0.223528294986E+03    0.38293E+03   -0.36054E+02 10449   0.132E+01    0.497E+01
RMM:   6     0.209960038033E+03   -0.13568E+02   -0.93002E+01 10643   0.544E+00    0.750E+01
RMM:   7     0.255212234273E+03    0.45252E+02   -0.24520E+01 10248   0.267E+00    0.303E+01
RMM:   8     0.241159513711E+03   -0.14053E+02   -0.12806E+01  9835   0.250E+00    0.581E+01
RMM:   9     0.250572181419E+03    0.94127E+01   -0.13319E+00 10322   0.108E+00    0.485E+01
RMM:  10     0.249311778726E+03   -0.12604E+01   -0.30384E+00  9518   0.176E+00    0.412E+01
RMM:  11     0.263423888193E+03    0.14112E+02   -0.25237E+00  9807   0.140E+00    0.154E+01
RMM:  12     0.264518935556E+03    0.10950E+01   -0.23581E-01 10371   0.452E-01    0.102E+01
RMM:  13     0.265125766568E+03    0.60683E+00   -0.22081E-01  9638   0.374E-01    0.530E+00
RMM:  14     0.265041612445E+03   -0.84154E-01   -0.48150E-02 10342   0.134E-01    0.508E+00
RMM:  15     0.265114051479E+03    0.72439E-01   -0.22722E-01  9670   0.414E-01    0.260E+00
RMM:  16     0.264483375806E+03   -0.63068E+00   -0.51797E-01 10782   0.127E-01    0.203E+00
RMM:  17     0.264473126604E+03   -0.10249E-01   -0.11396E-01 10644   0.445E-02    0.184E+00
RMM:  18     0.264475325892E+03    0.21993E-02   -0.30424E-02  9410   0.283E-02    0.175E+00
RMM:  19     0.264501203424E+03    0.25878E-01   -0.31994E-02  9389   0.928E-02    0.161E+00
RMM:  20     0.264503741971E+03    0.25385E-02   -0.22444E-02  9578   0.731E-02    0.233E+00
RMM:  21     0.264510327823E+03    0.65859E-02   -0.16142E-02  9815   0.307E-02    0.193E+00
RMM:  22     0.264520879790E+03    0.10552E-01   -0.13709E-02  8994   0.305E-02    0.121E+00
RMM:  23     0.264528696378E+03    0.78166E-02   -0.13147E-02  9072   0.352E-02    0.705E-01
RMM:  24     0.264515536208E+03   -0.13160E-01   -0.11261E-02  9470   0.275E-02    0.138E+00
RMM:  25     0.264518690062E+03    0.31539E-02   -0.12657E-02  8522   0.177E-02    0.930E-01
RMM:  26     0.264522441470E+03    0.37514E-02    0.54180E-03  7882   0.152E-02    0.772E-01
RMM:  27     0.264521495115E+03   -0.94635E-03    0.16451E-02  6907   0.657E-03    0.658E-01
RMM:  28     0.264521521319E+03    0.26204E-04   -0.10520E-03  5831   0.294E-03    0.658E-01
RMM:  29     0.264521418911E+03   -0.10241E-03   -0.17115E-04  4327   0.147E-03    0.660E-01
RMM:  30     0.264521448211E+03    0.29300E-04   -0.56113E-05  6360   0.429E-03    0.574E-01
RMM:  31     0.264521562482E+03    0.11427E-03   -0.28517E-04  7711   0.105E-02    0.244E-01
RMM:  32     0.264521061474E+03   -0.50101E-03   -0.26261E-04  7334   0.905E-03    0.164E-01
RMM:  33     0.264520787626E+03   -0.27385E-03   -0.91849E-05  6803   0.574E-03    0.174E-01
RMM:  34     0.264520893114E+03    0.10549E-03   -0.23044E-05  6182   0.386E-03    0.133E-01
RMM:  35     0.264521587377E+03    0.69426E-03   -0.19506E-05  5560   0.310E-03    0.109E-01
RMM:  36     0.264522245758E+03    0.65838E-03   -0.93220E-06  5720   0.296E-03    0.877E-02
RMM:  37     0.264522780483E+03    0.53473E-03   -0.70724E-06  5738   0.304E-03    0.767E-02
RMM:  38     0.264523083846E+03    0.30336E-03   -0.46381E-06  5188   0.216E-03    0.611E-02
RMM:  39     0.264523145286E+03    0.61441E-04   -0.87696E-07  5138   0.160E-03    0.509E-02
RMM:  40     0.264523010213E+03   -0.13507E-03   -0.60821E-06  5700   0.248E-03    0.435E-02
RMM:  41     0.264522724047E+03   -0.28617E-03   -0.26118E-06  5052   0.173E-03    0.356E-02
RMM:  42     0.264522155030E+03   -0.56902E-03   -0.64876E-06  4791   0.151E-03    0.310E-02
RMM:  43     0.264521283194E+03   -0.87184E-03   -0.10595E-05  5361   0.185E-03    0.566E-02
RMM:  44     0.264520787237E+03   -0.49596E-03   -0.49888E-06  5048   0.159E-03    0.380E-02
RMM:  45     0.264520509908E+03   -0.27733E-03   -0.72180E-07  4505   0.126E-03    0.212E-02
RMM:  46     0.264520447088E+03   -0.62820E-04    0.94148E-07  3362   0.919E-04    0.174E-02
RMM:  47     0.264520439341E+03   -0.77477E-05    0.32473E-07  4689   0.122E-03
  16 F= 0.26452044E+03 E0= 0.26458817E+03  d E =-.221280E+02  mag=     0.0074
       N       E                     dE             d eps       ncg     rms          rms(c)
DAV:   1     0.108001231072E+04    0.81549E+03   -0.36143E+04 10864   0.275E+02    0.767E+01
RMM:   2    -0.232589109551E+04   -0.34059E+04   -0.14168E+04 12344   0.107E+02    0.351E+02
RMM:   3     0.104314265963E+03    0.24302E+04   -0.56770E+02 10186   0.241E+01    0.888E+01
RMM:   4     0.686872020894E+02   -0.35627E+02   -0.26125E+02 10257   0.115E+01    0.105E+02
RMM:   5     0.154456537937E+03    0.85769E+02   -0.85303E+01 10180   0.727E+00    0.790E+01
RMM:   6     0.241472197170E+03    0.87016E+02   -0.86216E+00 10405   0.262E+00    0.231E+01
RMM:   7     0.246201151303E+03    0.47290E+01   -0.36768E+00  9821   0.162E+00    0.204E+01
RMM:   8     0.247336432984E+03    0.11353E+01   -0.10402E+00 10264   0.845E-01    0.172E+01
RMM:   9     0.247436637583E+03    0.10020E+00   -0.94950E-01  9740   0.943E-01    0.192E+01
RMM:  10     0.247845094863E+03    0.40846E+00   -0.72615E-01  9821   0.722E-01    0.183E+01
RMM:  11     0.248141806679E+03    0.29671E+00   -0.42930E-01  9866   0.610E-01    0.124E+01
RMM:  12     0.248742334541E+03    0.60053E+00   -0.52623E-01  9663   0.640E-01    0.105E+01
RMM:  13     0.249217143126E+03    0.47481E+00   -0.61388E-02 10172   0.244E-01    0.920E+00
RMM:  14     0.248845749711E+03   -0.37139E+00   -0.89133E-02  9620   0.249E-01    0.142E+01
RMM:  15     0.249359705638E+03    0.51396E+00   -0.58482E-02  9779   0.190E-01    0.737E+00
RMM:  16     0.249495977092E+03    0.13627E+00   -0.41662E-02  9608   0.142E-01    0.324E+00
RMM:  17     0.249486048214E+03   -0.99289E-02   -0.37720E-03  9782   0.617E-02    0.407E+00
RMM:  18     0.249514207064E+03    0.28159E-01   -0.13853E-02  9404   0.111E-01    0.301E+00
RMM:  19     0.249522950883E+03    0.87438E-02   -0.45144E-03  9650   0.562E-02    0.258E+00
RMM:  20     0.249533097253E+03    0.10146E-01   -0.23341E-03  9979   0.377E-02    0.147E+00
RMM:  21     0.249537436859E+03    0.43396E-02   -0.15573E-03  9652   0.258E-02    0.586E-01
RMM:  22     0.249538009453E+03    0.57259E-03   -0.33590E-04  8793   0.120E-02    0.308E-01
RMM:  23     0.249537727507E+03   -0.28195E-03   -0.11198E-04  7307   0.787E-03    0.291E-01
RMM:  24     0.249537623217E+03   -0.10429E-03   -0.28669E-05  6330   0.430E-03    0.262E-01
RMM:  25     0.249537511817E+03   -0.11140E-03   -0.34455E-05  6446   0.404E-03    0.174E-01
RMM:  26     0.249537338948E+03   -0.17287E-03   -0.32569E-05  6207   0.336E-03    0.833E-02
RMM:  27     0.249537143711E+03   -0.19524E-03   -0.23272E-05  6054   0.291E-03    0.279E-02
RMM:  28     0.249537007128E+03   -0.13658E-03   -0.11500E-05  5763   0.252E-03    0.207E-02
RMM:  29     0.249536970235E+03   -0.36893E-04   -0.40928E-06  5236   0.169E-03    0.748E-03
RMM:  30     0.249536941927E+03   -0.28308E-04   -0.12982E-06  4655   0.128E-03    0.366E-03
RMM:  31     0.249536931329E+03   -0.10598E-04   -0.26947E-07  3336   0.871E-04    0.132E-03
RMM:  32     0.249536914816E+03   -0.16513E-04   -0.34890E-07  3081   0.822E-04    0.262E-03
RMM:  33     0.249536910424E+03   -0.43918E-05    0.11096E-08  2582   0.738E-04
  17 F= 0.24953691E+03 E0= 0.24954935E+03  d E =-.371115E+02  mag=     0.0002
       N       E                     dE             d eps       ncg     rms          rms(c)
DAV:   1     0.311092700925E+03    0.61556E+02   -0.52731E+03 11184   0.104E+02    0.170E+01
RMM:   2     0.227057687133E+03   -0.84035E+02   -0.78072E+02 10168   0.251E+01    0.320E+01
RMM:   3     0.207733916454E+03   -0.19324E+02   -0.34064E+01 10273   0.591E+00    0.743E+01
RMM:   4     0.235038508299E+03    0.27305E+02   -0.59537E+00 10169   0.198E+00    0.147E+01
RMM:   5     0.236107042219E+03    0.10685E+01   -0.13019E+00 10017   0.974E-01    0.846E+00
RMM:   6     0.236292349497E+03    0.18531E+00   -0.63703E-01  9889   0.595E-01    0.118E+01
RMM:   7     0.236423522472E+03    0.13117E+00   -0.43324E-01 10076   0.503E-01    0.195E+01
RMM:   8     0.237638176500E+03    0.12147E+01   -0.27148E-01  9802   0.469E-01    0.480E+00
RMM:   9     0.237765806770E+03    0.12763E+00   -0.34243E-01 10042   0.425E-01    0.253E+00
RMM:  10     0.237799529482E+03    0.33723E-01   -0.28069E-02 10028   0.168E-01    0.194E+00
RMM:  11     0.237791419271E+03   -0.81102E-02   -0.15888E-02  9927   0.950E-02    0.209E+00
RMM:  12     0.237817940354E+03    0.26521E-01   -0.52219E-03  9944   0.608E-02    0.750E-01
RMM:  13     0.237818155329E+03    0.21498E-03   -0.12077E-03  9791   0.340E-02    0.385E-01
RMM:  14     0.237816395399E+03   -0.17599E-02   -0.71142E-04  9287   0.260E-02    0.675E-01
RMM:  15     0.237818116124E+03    0.17207E-02   -0.11182E-04  8115   0.101E-02    0.434E-01
RMM:  16     0.237818960141E+03    0.84402E-03   -0.16300E-04  8226   0.109E-02    0.191E-01
RMM:  17     0.237818916591E+03   -0.43550E-04   -0.44534E-05  7154   0.593E-03    0.137E-01
RMM:  18     0.237818683773E+03   -0.23282E-03   -0.67704E-05  7243   0.723E-03    0.667E-02
RMM:  19     0.237818572214E+03   -0.11156E-03   -0.22582E-05  6249   0.429E-03    0.339E-02
RMM:  20     0.237818443834E+03   -0.12838E-03   -0.13569E-05  5787   0.332E-03    0.143E-02
RMM:  21     0.237818352447E+03   -0.91387E-04   -0.51010E-06  5632   0.205E-03    0.753E-03
RMM:  22     0.237818284771E+03   -0.67676E-04   -0.22955E-06  4725   0.139E-03    0.492E-03
RMM:  23     0.237818235574E+03   -0.49198E-04   -0.12303E-06  5068   0.128E-03    0.522E-03
RMM:  24     0.237818206644E+03   -0.28929E-04   -0.97376E-07  4879   0.128E-03    0.506E-03
RMM:  25     0.237818194436E+03   -0.12208E-04   -0.29821E-07  3700   0.938E-04    0.344E-03
RMM:  26     0.237818187463E+03   -0.69730E-05   -0.16237E-07  3040   0.805E-04
  18 F= 0.23781819E+03 E0= 0.23784617E+03  d E =-.117187E+02  mag=     0.0001
       N       E                     dE             d eps       ncg     rms          rms(c)
DAV:   1     0.141699942134E+04    0.11792E+04   -0.44682E+04 11376   0.314E+02    0.102E+02
RMM:   2    -0.431273334429E+04   -0.57297E+04   -0.25453E+04 13371   0.135E+02    0.372E+02
RMM:   3    -0.361607211527E+03    0.39511E+04   -0.18787E+03 10970   0.348E+01    0.189E+02
RMM:   4     0.604509524342E+02    0.42206E+03   -0.32079E+02 10478   0.131E+01    0.123E+02
RMM:   5     0.155010041306E+03    0.94559E+02   -0.11636E+02 10296   0.757E+00    0.629E+01
RMM:   6     0.191652466836E+03    0.36642E+02   -0.25752E+01 10115   0.386E+00    0.622E+01
RMM:   7     0.209109164774E+03    0.17457E+02   -0.19843E+00 10311   0.164E+00    0.301E+01
RMM:   8     0.213595544248E+03    0.44864E+01   -0.53374E+00 10120   0.159E+00    0.394E+01
RMM:   9     0.212068165346E+03   -0.15274E+01   -0.22042E+00 10454   0.908E-01    0.429E+01
RMM:  10     0.211336892299E+03   -0.73127E+00   -0.29499E+00  9959   0.684E-01    0.390E+01
RMM:  11     0.215968574894E+03    0.46317E+01   -0.65276E+00  9885   0.171E+00    0.295E+01
RMM:  12     0.216374870288E+03    0.40630E+00   -0.50951E+00 10299   0.744E-01    0.254E+01
RMM:  13     0.216258156008E+03   -0.11671E+00   -0.11782E+01  9824   0.778E-01    0.932E+00
RMM:  14     0.215306622284E+03   -0.95153E+00   -0.11700E+01 10580   0.404E-01    0.783E+00
RMM:  15     0.215647335989E+03    0.34071E+00   -0.60174E-02 10026   0.238E-01    0.721E+00
RMM:  16     0.216035492622E+03    0.38816E+00    0.93842E-02  9746   0.332E-01    0.413E+00
RMM:  17     0.216132534203E+03    0.97042E-01    0.96361E-02 10188   0.233E-01    0.518E+00
RMM:  18     0.216143092274E+03    0.10558E-01   -0.14269E-02 10201   0.162E-01    0.606E+00
RMM:  19     0.216214713933E+03    0.71622E-01   -0.88127E-02  9928   0.158E-01    0.499E+00
RMM:  20     0.216199721361E+03   -0.14993E-01   -0.16983E-01 10143   0.119E-01    0.500E+00
RMM:  21     0.216194115634E+03   -0.56057E-02   -0.47804E-01 10106   0.119E-01    0.191E+00
RMM:  22     0.216119240574E+03   -0.74875E-01   -0.66028E-01 10332   0.887E-02    0.193E+00
RMM:  23     0.216027100562E+03   -0.92140E-01   -0.84647E-01 10019   0.819E-02    0.138E+00
RMM:  24     0.215907292873E+03   -0.11981E+00   -0.10863E+00  9888   0.824E-02    0.107E+00
RMM:  25     0.215743110662E+03   -0.16418E+00   -0.15099E+00  9882   0.856E-02    0.103E+00
RMM:  26     0.215534190788E+03   -0.20892E+00   -0.20215E+00  9216   0.687E-02    0.101E+00
RMM:  27     0.215364869501E+03   -0.16932E+00   -0.14531E+00  9457   0.730E-02    0.148E+00
RMM:  28     0.215229619499E+03   -0.13525E+00   -0.11957E+00  7741   0.605E-02    0.163E+00
RMM:  29     0.215031442334E+03   -0.19818E+00   -0.17396E+00  7048   0.639E-02    0.169E+00
RMM:  30     0.214155702586E+03   -0.87574E+00   -0.61483E+00  6250   0.907E-02    0.157E+00
RMM:  31     0.212100450352E+03   -0.20553E+01   -0.17233E+01  8228   0.199E-01    0.154E+00
RMM:  32     0.212540236622E+03    0.43979E+00   -0.70118E-01  6661   0.596E-02    0.155E+00
RMM:  33     0.212541364437E+03    0.11278E-02   -0.54818E-02  6985   0.172E-02    0.152E+00
RMM:  34     0.212540294166E+03   -0.10703E-02   -0.62574E-03  6981   0.875E-03    0.163E+00
RMM:  35     0.212540331127E+03    0.36961E-04   -0.17505E-03  9263   0.218E-02    0.171E+00
RMM:  36     0.212549719577E+03    0.93885E-02   -0.14797E-03  9307   0.252E-02    0.137E+00
RMM:  37     0.212552679576E+03    0.29600E-02   -0.22905E-04  7567   0.882E-03    0.124E+00
RMM:  38     0.212558607776E+03    0.59282E-02   -0.77579E-04  8939   0.180E-02    0.731E-01
RMM:  39     0.212560890107E+03    0.22823E-02   -0.16925E-04  7881   0.887E-03    0.695E-01
RMM:  40     0.212562298343E+03    0.14082E-02   -0.34747E-05  6421   0.426E-03    0.693E-01
RMM:  41     0.212562484074E+03    0.18573E-03   -0.40717E-06  5547   0.185E-03    0.698E-01
RMM:  42     0.212562295844E+03   -0.18823E-03   -0.76548E-06  5689   0.293E-03    0.636E-01
RMM:  43     0.212557052495E+03   -0.52433E-02   -0.41812E-04  8985   0.188E-02    0.478E-01
RMM:  44     0.212556383040E+03   -0.66946E-03   -0.19195E-04  8244   0.127E-02    0.576E-01
RMM:  45     0.212556438017E+03    0.54977E-04   -0.10090E-05  5952   0.328E-03    0.578E-01
RMM:  46     0.212557240024E+03    0.80201E-03   -0.10670E-05  5873   0.306E-03    0.574E-01
RMM:  47     0.212564023171E+03    0.67831E-02   -0.79931E-04  9050   0.197E-02    0.485E-01
RMM:  48     0.212561907986E+03   -0.21152E-02   -0.28547E-04  8366   0.125E-02    0.437E-01
RMM:  49     0.212559156894E+03   -0.27511E-02   -0.31531E-04  8796   0.146E-02    0.500E-01
RMM:  50     0.212556873376E+03   -0.22835E-02   -0.13505E-04  7610   0.914E-03    0.578E-01
RMM:  51     0.212556500401E+03   -0.37298E-03   -0.26364E-05  6255   0.416E-03    0.602E-01
RMM:  52     0.212555270412E+03   -0.12300E-02   -0.66042E-05  7168   0.687E-03    0.614E-01
RMM:  53     0.212555193380E+03   -0.77032E-04   -0.98862E-06  5838   0.326E-03    0.613E-01
RMM:  54     0.212555916966E+03    0.72359E-03   -0.73772E-05  7556   0.810E-03    0.618E-01
RMM:  55     0.212556552092E+03    0.63513E-03   -0.20381E-04  8404   0.124E-02    0.670E-01
RMM:  56     0.212556658306E+03    0.10621E-03   -0.11550E-04  7617   0.877E-03    0.758E-01
RMM:  57     0.212556325187E+03   -0.33312E-03   -0.53090E-05  7200   0.644E-03    0.832E-01
RMM:  58     0.212556236614E+03   -0.88573E-04   -0.30263E-05  6643   0.493E-03    0.892E-01
RMM:  59     0.212555782909E+03   -0.45371E-03   -0.98702E-05  7374   0.819E-03    0.996E-01
RMM:  60     0.212554732761E+03   -0.10501E-02   -0.48892E-05  6914   0.625E-03
  19 F= 0.21255473E+03 E0= 0.21261105E+03  d E =-.369822E+02  mag=     1.3742
       N       E                     dE             d eps       ncg     rms          rms(c)
DAV:   1     0.244971566017E+04    0.22372E+04   -0.12143E+05 11456   0.383E+02    0.186E+02
RMM:   2    -0.522009470101E+04   -0.76698E+04   -0.39776E+04 14284   0.180E+02    0.625E+02
RMM:   3    -0.366345050758E+03    0.48537E+04   -0.33806E+03 10214   0.571E+01    0.550E+02
RMM:   4    -0.600596796642E+03   -0.23425E+03   -0.44727E+02 11382   0.143E+01    0.630E+02
RMM:   5    -0.112720973220E+04   -0.52661E+03   -0.39502E+02 10218   0.102E+01    0.630E+02
RMM:   6    -0.705139253507E+03    0.42207E+03   -0.67236E+02 10457   0.115E+01    0.224E+02
RMM:   7    -0.259245645976E+02    0.67921E+03   -0.44156E+02 10563   0.124E+01    0.215E+02
RMM:   8     0.133323826954E+03    0.15925E+03   -0.54884E+01 10877   0.353E+00    0.157E+02
RMM:   9     0.119110909225E+03   -0.14213E+02   -0.35762E+01 10283   0.343E+00    0.152E+02
RMM:  10     0.139193633948E+03    0.20083E+02   -0.11728E+01 10457   0.133E+00    0.132E+02
RMM:  11     0.171958722542E+03    0.32765E+02   -0.89306E+00  9850   0.215E+00    0.960E+01
RMM:  12     0.170457227233E+03   -0.15015E+01   -0.30102E+00 10642   0.766E-01    0.911E+01
RMM:  13     0.185425835369E+03    0.14969E+02   -0.26149E+00  9746   0.155E+00    0.388E+01
RMM:  14     0.189634872293E+03    0.42090E+01   -0.23143E+00  9664   0.159E+00    0.267E+01
RMM:  15     0.190208065514E+03    0.57319E+00   -0.19354E+00  9784   0.150E+00    0.260E+01
RMM:  16     0.190254547127E+03    0.46482E-01   -0.65980E-01 10135   0.756E-01    0.239E+01
RMM:  17     0.191456547220E+03    0.12020E+01   -0.52954E-01  9407   0.793E-01    0.907E+00
RMM:  18     0.190909742282E+03   -0.54680E+00   -0.15425E-01  9975   0.414E-01    0.187E+01
RMM:  19     0.191297951572E+03    0.38821E+00   -0.36004E-01  9520   0.585E-01    0.106E+01
RMM:  20     0.191721203071E+03    0.42325E+00   -0.95127E-02  9724   0.291E-01    0.596E+00
RMM:  21     0.191676169737E+03   -0.45033E-01   -0.38751E-02  9703   0.195E-01    0.390E+00
RMM:  22     0.191758716775E+03    0.82547E-01   -0.51534E-02  9565   0.179E-01    0.150E+00
RMM:  23     0.191760275451E+03    0.15587E-02   -0.33191E-03 10886   0.533E-02    0.165E+00
RMM:  24     0.191759264185E+03   -0.10113E-02   -0.18764E-03  9528   0.371E-02    0.857E-01
RMM:  25     0.191756426306E+03   -0.28379E-02   -0.15366E-03  9353   0.371E-02    0.850E-01
RMM:  26     0.191756945984E+03    0.51968E-03   -0.34161E-04  9733   0.162E-02    0.538E-01
RMM:  27     0.191756654391E+03   -0.29159E-03   -0.26433E-04  8767   0.128E-02    0.362E-01
RMM:  28     0.191754294392E+03   -0.23600E-02   -0.12723E-03  9296   0.247E-02    0.109E+00
RMM:  29     0.191757760508E+03    0.34661E-02   -0.58832E-04  9441   0.171E-02    0.526E-01
RMM:  30     0.191758249854E+03    0.48935E-03   -0.55133E-04  8145   0.150E-02    0.579E-01
RMM:  31     0.191758162019E+03   -0.87834E-04   -0.38336E-04  8384   0.125E-02    0.484E-01
RMM:  32     0.191756241736E+03   -0.19203E-02   -0.13869E-04  7248   0.857E-03    0.165E-01
RMM:  33     0.191752343682E+03   -0.38981E-02   -0.15026E-04  7522   0.969E-03    0.166E-01
RMM:  34     0.191749970945E+03   -0.23727E-02   -0.58547E-05  6461   0.470E-03    0.201E-01
RMM:  35     0.191745005604E+03   -0.49653E-02   -0.27210E-04  6891   0.824E-03    0.785E-02
RMM:  36     0.191742241505E+03   -0.27641E-02   -0.12909E-04  6186   0.475E-03    0.580E-02
RMM:  37     0.191740396618E+03   -0.18449E-02   -0.77895E-05  6177   0.419E-03    0.301E-02
RMM:  38     0.191739414302E+03   -0.98232E-03   -0.28990E-05  5822   0.250E-03    0.479E-02
RMM:  39     0.191738901011E+03   -0.51329E-03   -0.13501E-05  5620   0.193E-03    0.243E-02
RMM:  40     0.191738569882E+03   -0.33113E-03   -0.74785E-06  5459   0.164E-03    0.211E-02
RMM:  41     0.191738392168E+03   -0.17771E-03   -0.31007E-06  4190   0.124E-03    0.187E-02
RMM:  42     0.191738306015E+03   -0.86153E-04   -0.14027E-06  4498   0.120E-03    0.158E-02
RMM:  43     0.191738252005E+03   -0.54010E-04   -0.88719E-07  3919   0.109E-03    0.437E-03
RMM:  44     0.191738236418E+03   -0.15586E-04   -0.30199E-07  3253   0.860E-04    0.280E-03
RMM:  45     0.191738215674E+03   -0.20744E-04   -0.36122E-07  3563   0.928E-04    0.292E-03
RMM:  46     0.191738203441E+03   -0.12233E-04   -0.28257E-07  3366   0.872E-04    0.375E-03
RMM:  47     0.191738201102E+03   -0.23396E-05   -0.15900E-07  2690   0.728E-04
  20 F= 0.19173820E+03 E0= 0.19178740E+03  d E =-.577987E+02  mag=     0.0000
       N       E                     dE             d eps       ncg     rms          rms(c)
DAV:   1     0.455484483832E+03    0.26375E+03   -0.14093E+04 11112   0.177E+02    0.311E+01
RMM:   2    -0.999613924730E+02   -0.55545E+03   -0.34109E+03 10508   0.505E+01    0.162E+02
RMM:   3     0.126068817025E+03    0.22603E+03   -0.13234E+02 10020   0.112E+01    0.118E+02
RMM:   4     0.157471618002E+03    0.31403E+02   -0.12286E+01 10142   0.329E+00    0.533E+01
RMM:   5     0.162542608638E+03    0.50710E+01   -0.10334E+01  9679   0.229E+00    0.299E+01
RMM:   6     0.163961107912E+03    0.14185E+01   -0.86708E+00 10039   0.219E+00    0.595E+01
RMM:   7     0.185292147677E+03    0.21331E+02   -0.10930E+00 10121   0.943E-01    0.343E+01
RMM:   8     0.187697849314E+03    0.24057E+01   -0.47071E-01  9912   0.520E-01    0.234E+01
RMM:   9     0.189167551313E+03    0.14697E+01   -0.85381E-01  9824   0.686E-01    0.881E+00
RMM:  10     0.189393907043E+03    0.22636E+00   -0.69199E-01  9705   0.675E-01    0.150E+01
RMM:  11     0.190111627062E+03    0.71772E+00   -0.11142E-01 10028   0.324E-01    0.897E+00
RMM:  12     0.190152176621E+03    0.40550E-01   -0.98509E-02  9915   0.249E-01    0.913E+00
RMM:  13     0.190211608982E+03    0.59432E-01   -0.41639E-02  9673   0.193E-01    0.811E+00
RMM:  14     0.190382839772E+03    0.17123E+00   -0.12889E-01  9559   0.324E-01    0.502E+00
RMM:  15     0.190395133039E+03    0.12293E-01   -0.51374E-03 10761   0.802E-02    0.455E+00
RMM:  16     0.190441538539E+03    0.46406E-01   -0.61888E-03  9540   0.637E-02    0.237E+00
RMM:  17     0.190452135874E+03    0.10597E-01   -0.16825E-03  9715   0.355E-02    0.105E+00
RMM:  18     0.190451248842E+03   -0.88703E-03   -0.88853E-04  9479   0.284E-02    0.118E+00
RMM:  19     0.190453019176E+03    0.17703E-02   -0.39626E-04  9790   0.195E-02    0.658E-01
RMM:  20     0.190453296490E+03    0.27731E-03   -0.25474E-04  8819   0.145E-02    0.245E-01
RMM:  21     0.190453040298E+03   -0.25619E-03   -0.86133E-05  8132   0.979E-03    0.134E-01
RMM:  22     0.190452942280E+03   -0.98018E-04   -0.11820E-05  5891   0.341E-03    0.157E-01
RMM:  23     0.190452803093E+03   -0.13919E-03   -0.92060E-06  5730   0.280E-03    0.111E-01
RMM:  24     0.190452650860E+03   -0.15223E-03   -0.68630E-06  5607   0.224E-03    0.696E-02
RMM:  25     0.190452521401E+03   -0.12946E-03   -0.56323E-06  5621   0.197E-03    0.555E-02
RMM:  26     0.190452462482E+03   -0.58918E-04   -0.29101E-06  5576   0.167E-03    0.335E-02
RMM:  27     0.190452408280E+03   -0.54203E-04   -0.28117E-06  5443   0.160E-03    0.207E-02
RMM:  28     0.190452393994E+03   -0.14285E-04   -0.67070E-07  3827   0.945E-04    0.192E-02
RMM:  29     0.190452386543E+03   -0.74514E-05   -0.43397E-07  3947   0.929E-04
  21 F= 0.19045239E+03 E0= 0.19049609E+03  d E =-.590845E+02  mag=    -0.0009
       N       E                     dE             d eps       ncg     rms          rms(c)
DAV:   1     0.307505025516E+03    0.11705E+03   -0.81571E+03 10992   0.130E+02    0.215E+01
RMM:   2     0.163056433906E+03   -0.14445E+03   -0.13104E+03 10156   0.313E+01    0.250E+01
RMM:   3     0.917139573650E+02   -0.71342E+02   -0.56021E+01 10153   0.735E+00    0.127E+02
RMM:   4     0.174234565202E+03    0.82521E+02   -0.89717E+00 10136   0.265E+00    0.355E+01
RMM:   5     0.179788977637E+03    0.55544E+01   -0.39410E+00  9885   0.133E+00    0.252E+01
RMM:   6     0.183207051892E+03    0.34181E+01   -0.55517E-01 10123   0.647E-01    0.110E+01
RMM:   7     0.179510165875E+03   -0.36969E+01   -0.13185E+00  9678   0.981E-01    0.345E+01
RMM:   8     0.183538550859E+03    0.40284E+01   -0.86965E-01  9940   0.700E-01    0.196E+01
RMM:   9     0.184186567197E+03    0.64802E+00   -0.68711E-01  9769   0.625E-01    0.122E+01
RMM:  10     0.184654022605E+03    0.46746E+00   -0.69273E-02 10213   0.214E-01    0.543E+00
RMM:  11     0.184682502864E+03    0.28480E-01   -0.31066E-02  9673   0.144E-01    0.571E+00
RMM:  12     0.184506002701E+03   -0.17650E+00   -0.49324E-02  9695   0.178E-01    0.977E+00
RMM:  13     0.184725552076E+03    0.21955E+00   -0.28189E-02  9734   0.129E-01    0.139E+00
RMM:  14     0.184737713025E+03    0.12161E-01   -0.38698E-03 10027   0.538E-02    0.185E+00
RMM:  15     0.184733761184E+03   -0.39518E-02   -0.33915E-03  9604   0.486E-02    0.145E+00
RMM:  16     0.184734846702E+03    0.10855E-02   -0.36548E-04  9874   0.187E-02    0.138E+00
RMM:  17     0.184738805332E+03    0.39586E-02   -0.71260E-04  9143   0.232E-02    0.110E+00
RMM:  18     0.184742607327E+03    0.38020E-02   -0.10220E-03  9296   0.304E-02    0.681E-01
RMM:  19     0.184743913219E+03    0.13059E-02   -0.51858E-04  9363   0.212E-02    0.376E-01
RMM:  20     0.184744080646E+03    0.16743E-03   -0.32109E-04  8973   0.162E-02    0.225E-01
RMM:  21     0.184744105141E+03    0.24494E-04   -0.18207E-04  8528   0.122E-02    0.753E-02
RMM:  22     0.184744058043E+03   -0.47097E-04   -0.16689E-05  6290   0.420E-03    0.536E-02
RMM:  23     0.184744009053E+03   -0.48990E-04   -0.48763E-06  5604   0.246E-03    0.276E-02
RMM:  24     0.184743944879E+03   -0.64173E-04   -0.61976E-06  5653   0.243E-03    0.651E-03
RMM:  25     0.184743929395E+03   -0.15484E-04   -0.14778E-06  4611   0.140E-03    0.501E-03
RMM:  26     0.184743906948E+03   -0.22447E-04   -0.10051E-06  3788   0.106E-03    0.455E-03
RMM:  27     0.184743899152E+03   -0.77969E-05   -0.57842E-07  2892   0.883E-04
  22 F= 0.18474390E+03 E0= 0.18477778E+03  d E =-.570849E+01  mag=    -0.0003
       N       E                     dE             d eps       ncg     rms          rms(c)
DAV:   1     0.233470634314E+03    0.48727E+02   -0.39732E+03 10928   0.862E+01    0.118E+01
RMM:   2     0.175041738353E+03   -0.58429E+02   -0.55281E+02 10182   0.207E+01    0.213E+01
RMM:   3     0.168391294802E+03   -0.66504E+01   -0.23251E+01 10359   0.470E+00    0.549E+01
RMM:   4     0.179400561997E+03    0.11009E+02   -0.43799E+00 10101   0.168E+00    0.251E+01
RMM:   5     0.181769514703E+03    0.23690E+01   -0.64411E-01 10057   0.655E-01    0.764E+00
RMM:   6     0.181389895048E+03   -0.37962E+00   -0.38957E-01  9862   0.453E-01    0.126E+01
RMM:   7     0.181595858327E+03    0.20596E+00   -0.29833E-01  9930   0.396E-01    0.209E+01
RMM:   8     0.181583287218E+03   -0.12571E-01   -0.32027E-01  9850   0.408E-01    0.211E+01
RMM:   9     0.182975530336E+03    0.13922E+01   -0.25691E-01  9874   0.395E-01    0.552E+00
RMM:  10     0.183092616379E+03    0.11709E+00   -0.16068E-01  9984   0.288E-01    0.456E+00
RMM:  11     0.183138573364E+03    0.45957E-01   -0.96303E-03 10638   0.806E-02    0.356E+00
RMM:  12     0.183151708808E+03    0.13135E-01   -0.28494E-02  9465   0.133E-01    0.478E+00
RMM:  13     0.183229463604E+03    0.77755E-01   -0.17487E-02  9394   0.112E-01    0.117E+00
RMM:  14     0.183234839361E+03    0.53758E-02   -0.57239E-03  9966   0.557E-02    0.849E-01
RMM:  15     0.183233175961E+03   -0.16634E-02   -0.33292E-03  9315   0.451E-02    0.108E+00
RMM:  16     0.183236399734E+03    0.32238E-02   -0.49959E-04  9342   0.192E-02    0.689E-01
RMM:  17     0.183237615024E+03    0.12153E-02   -0.26672E-04  9293   0.155E-02    0.418E-01
RMM:  18     0.183237954979E+03    0.33996E-03   -0.99211E-05  8503   0.908E-03    0.246E-01
RMM:  19     0.183237963499E+03    0.85202E-05   -0.82160E-05  8033   0.837E-03
  23 F= 0.18323796E+03 E0= 0.18330514E+03  d E =-.721442E+01  mag=    -0.0008
       N       E                     dE             d eps       ncg     rms          rms(c)
DAV:   1     0.191878609800E+03    0.86407E+01   -0.95418E+02 10824   0.398E+01    0.410E+00
RMM:   2     0.181096709493E+03   -0.10782E+02   -0.10199E+02 10255   0.901E+00    0.126E+01
RMM:   3     0.182253381738E+03    0.11567E+01   -0.42060E+00 10917   0.192E+00    0.587E+00
RMM:   4     0.177225863406E+03   -0.50275E+01   -0.64706E-01  9936   0.614E-01    0.300E+01
RMM:   5     0.181958358827E+03    0.47325E+01   -0.40573E-01  9975   0.415E-01    0.158E+01
RMM:   6     0.182451547719E+03    0.49319E+00   -0.83342E-02 10114   0.196E-01    0.125E+01
RMM:   7     0.182508079169E+03    0.56531E-01   -0.81030E-02  9685   0.205E-01    0.110E+01
RMM:   8     0.182893782984E+03    0.38570E+00   -0.55433E-02  9793   0.160E-01    0.299E+00
RMM:   9     0.182921166906E+03    0.27384E-01   -0.73377E-02  9839   0.192E-01    0.222E+00
RMM:  10     0.182941529781E+03    0.20363E-01   -0.60485E-03 10158   0.698E-02    0.102E+00
RMM:  11     0.182946524285E+03    0.49945E-02   -0.25674E-03  9825   0.419E-02    0.758E-01
RMM:  12     0.182946535857E+03    0.11572E-04   -0.28605E-03  9879   0.482E-02    0.947E-01
RMM:  13     0.182949633874E+03    0.30980E-02   -0.15416E-03  9754   0.302E-02    0.238E-01
RMM:  14     0.182949970959E+03    0.33709E-03   -0.40002E-04  9054   0.155E-02    0.163E-01
RMM:  15     0.182950055125E+03    0.84166E-04   -0.11116E-04  7983   0.836E-03    0.120E-01
RMM:  16     0.182950064123E+03    0.89976E-05   -0.22254E-05  6495   0.408E-03
  24 F= 0.18295006E+03 E0= 0.18302199E+03  d E =-.750232E+01  mag=    -0.0004
       N       E                     dE             d eps       ncg     rms          rms(c)
DAV:   1     0.188037435988E+03    0.50874E+01   -0.58874E+02 10784   0.310E+01    0.292E+00
RMM:   2     0.181945766724E+03   -0.60917E+01   -0.59174E+01 10279   0.682E+00    0.982E+00
RMM:   3     0.182521147812E+03    0.57538E+00   -0.24572E+00 11031   0.144E+00    0.308E+00
RMM:   4     0.180187545526E+03   -0.23336E+01   -0.33993E-01  9876   0.447E-01    0.231E+01
RMM:   5     0.182264307187E+03    0.20768E+01   -0.21037E-01  9944   0.300E-01    0.129E+01
RMM:   6     0.182581116951E+03    0.31681E+00   -0.37724E-02 10084   0.136E-01    0.101E+01
RMM:   7     0.182582013171E+03    0.89622E-03   -0.39116E-02  9760   0.144E-01    0.984E+00
RMM:   8     0.182824566317E+03    0.24255E+00   -0.53348E-02  9852   0.154E-01    0.369E+00
RMM:   9     0.182875082445E+03    0.50516E-01   -0.22412E-02  9938   0.988E-02    0.127E+00
RMM:  10     0.182880014719E+03    0.49323E-02   -0.11375E-03  9852   0.315E-02    0.612E-01
RMM:  11     0.182881600995E+03    0.15863E-02   -0.83744E-04  9105   0.252E-02    0.643E-01
RMM:  12     0.182882954223E+03    0.13532E-02   -0.10400E-03  9473   0.245E-02    0.339E-01
RMM:  13     0.182882965874E+03    0.11652E-04   -0.14599E-04  8338   0.109E-02    0.336E-01
RMM:  14     0.182883281111E+03    0.31524E-03   -0.74351E-05  7542   0.757E-03    0.142E-01
RMM:  15     0.182883288305E+03    0.71938E-05   -0.63989E-05  7500   0.666E-03
  25 F= 0.18288329E+03 E0= 0.18295704E+03  d E =-.756910E+01  mag=    -0.0002
       N       E                     dE             d eps       ncg     rms          rms(c)
DAV:   1     0.186965658724E+03    0.40824E+01   -0.54364E+02 10816   0.302E+01    0.271E+00
RMM:   2     0.180666051566E+03   -0.62996E+01   -0.51363E+01 10227   0.655E+00    0.577E+00
RMM:   3     0.180545338768E+03   -0.12071E+00   -0.24626E+00 10796   0.148E+00    0.220E+01
RMM:   4     0.182119256304E+03    0.15739E+01   -0.13834E-01 10098   0.353E-01    0.432E+00
RMM:   5     0.182125869535E+03    0.66132E-02   -0.20254E-01 10058   0.285E-01    0.623E+00
RMM:   6     0.182356260713E+03    0.23039E+00   -0.40028E-02 10089   0.136E-01    0.247E+00
RMM:   7     0.182374621746E+03    0.18361E-01   -0.59438E-02  9874   0.166E-01    0.243E+00
RMM:   8     0.182418202454E+03    0.43581E-01   -0.61606E-02  9731   0.150E-01    0.114E+00
RMM:   9     0.182422510871E+03    0.43084E-02   -0.12235E-02  9859   0.846E-02    0.252E-01
RMM:  10     0.182421858120E+03   -0.65275E-03   -0.19036E-03 10045   0.406E-02    0.563E-01
RMM:  11     0.182423312067E+03    0.14539E-02   -0.29245E-04  9120   0.161E-02    0.143E-01
RMM:  12     0.182423546047E+03    0.23398E-03   -0.20048E-04  8323   0.991E-03    0.157E-01
RMM:  13     0.182423613632E+03    0.67584E-04   -0.37301E-05  7072   0.462E-03    0.123E-02
RMM:  14     0.182423580477E+03   -0.33155E-04   -0.41160E-06  5651   0.246E-03    0.454E-02
RMM:  15     0.182423533263E+03   -0.47214E-04   -0.43708E-06  5462   0.188E-03    0.963E-03
RMM:  16     0.182423488254E+03   -0.45009E-04   -0.97102E-07  4090   0.121E-03    0.127E-02
[...]
DAV:   1     0.177940772683E+03    0.17963E+00   -0.26581E+01 10896   0.632E+00    0.829E-01
RMM:   2     0.177451607806E+03   -0.48916E+00   -0.21469E+00 10270   0.135E+00    0.966E+00
RMM:   3     0.177639355370E+03    0.18775E+00   -0.96594E-02 10578   0.299E-01    0.532E+00
RMM:   4     0.177714968475E+03    0.75613E-01   -0.12158E-02  9874   0.844E-02    0.187E+00
RMM:   5     0.177741281262E+03    0.26313E-01   -0.15292E-02  9799   0.793E-02    0.122E+00
RMM:   6     0.177732263064E+03   -0.90182E-02   -0.67113E-03  9804   0.570E-02    0.204E+00
RMM:   7     0.177745496912E+03    0.13234E-01   -0.20709E-03  9609   0.339E-02    0.116E+00
RMM:   8     0.177748579039E+03    0.30821E-02   -0.72071E-04  8753   0.180E-02    0.613E-01
RMM:   9     0.177749475971E+03    0.89693E-03   -0.24732E-04  8702   0.139E-02    0.135E-01
RMM:  10     0.177749461293E+03   -0.14678E-04   -0.34641E-05  6830   0.624E-03    0.129E-01
RMM:  11     0.177749519726E+03    0.58433E-04   -0.84141E-06  5762   0.302E-03    0.254E-02
RMM:  12     0.177749512531E+03   -0.71953E-05   -0.70339E-06  5684   0.246E-03
  54 F= 0.17774951E+03 E0= 0.17780474E+03  d E =-.627868E-01  mag=    -0.0000
       N       E                     dE             d eps       ncg     rms          rms(c)
DAV:   1     0.177765989269E+03    0.16470E-01   -0.25999E+00 10688   0.198E+00    0.272E-01
RMM:   2     0.177714954284E+03   -0.51035E-01   -0.20964E-01 10295   0.422E-01    0.333E+00
RMM:   3     0.177735496894E+03    0.20543E-01   -0.95431E-03 10524   0.937E-02    0.177E+00
RMM:   4     0.177743362592E+03    0.78657E-02   -0.13378E-03  9396   0.279E-02    0.654E-01
RMM:   5     0.177746664260E+03    0.33017E-02   -0.18425E-03  9026   0.277E-02    0.381E-01
RMM:   6     0.177745885571E+03   -0.77869E-03   -0.59329E-04  8985   0.170E-02    0.631E-01
RMM:   7     0.177747101220E+03    0.12156E-02   -0.20429E-04  8337   0.109E-02    0.373E-01
RMM:   8     0.177747457693E+03    0.35647E-03   -0.61051E-05  7286   0.531E-03    0.169E-01
RMM:   9     0.177747512625E+03    0.54932E-04   -0.21167E-05  6411   0.425E-03    0.412E-02
RMM:  10     0.177747516048E+03    0.34224E-05   -0.46487E-06  5560   0.270E-03
  55 F= 0.17774752E+03 E0= 0.17780311E+03  d E =-.647832E-01  mag=    -0.0000
       N       E                     dE             d eps       ncg     rms          rms(c)
DAV:   1     0.177821414242E+03    0.73902E-01   -0.10404E+01 10952   0.395E+00    0.559E-01
RMM:   2     0.177612409948E+03   -0.20900E+00   -0.83634E-01 10268   0.845E-01    0.669E+00
RMM:   3     0.177694674702E+03    0.82265E-01   -0.38634E-02 10538   0.190E-01    0.368E+00
RMM:   4     0.177731682447E+03    0.37008E-01   -0.55097E-03  9777   0.563E-02    0.127E+00
RMM:   5     0.177742301867E+03    0.10619E-01   -0.69380E-03  9437   0.533E-02    0.976E-01
RMM:   6     0.177741783343E+03   -0.51852E-03   -0.29241E-03  9668   0.376E-02    0.110E+00
RMM:   7     0.177745722739E+03    0.39394E-02   -0.88432E-04  9111   0.221E-02    0.769E-01
RMM:   8     0.177747195325E+03    0.14726E-02   -0.25355E-04  8277   0.108E-02    0.361E-01
RMM:   9     0.177747490519E+03    0.29519E-03   -0.95812E-05  7619   0.873E-03    0.766E-02
RMM:  10     0.177747501611E+03    0.11092E-04   -0.15437E-05  6083   0.455E-03    0.467E-02
RMM:  11     0.177747509445E+03    0.78346E-05   -0.39395E-06  5258   0.217E-03
  56 F= 0.17774751E+03 E0= 0.17780426E+03  d E =-.647898E-01  mag=    -0.0000
       N       E                     dE             d eps       ncg     rms          rms(c)
DAV:   1     0.177773273743E+03    0.25772E-01   -0.37433E+00 10712   0.237E+00    0.339E-01
RMM:   2     0.177704287833E+03   -0.68986E-01   -0.30115E-01 10310   0.509E-01    0.384E+00
RMM:   3     0.177727334429E+03    0.23047E-01   -0.13573E-02 10563   0.112E-01    0.223E+00
RMM:   4     0.177740066191E+03    0.12732E-01   -0.21767E-03  9576   0.350E-02    0.806E-01
RMM:   5     0.177745966051E+03    0.58999E-02   -0.31511E-03  9377   0.367E-02    0.331E-01
RMM:   6     0.177744164011E+03   -0.18020E-02   -0.70469E-04  9151   0.184E-02    0.823E-01
RMM:   7     0.177746390782E+03    0.22268E-02   -0.27127E-04  8443   0.126E-02    0.335E-01
RMM:   8     0.177746733147E+03    0.34236E-03   -0.90622E-05  7539   0.657E-03    0.121E-01
RMM:   9     0.177746752809E+03    0.19662E-04   -0.32842E-05  6725   0.511E-03    0.813E-02
RMM:  10     0.177746779536E+03    0.26727E-04   -0.67737E-06  5656   0.328E-03    0.245E-02
RMM:  11     0.177746781809E+03    0.22725E-05   -0.19285E-06  4614   0.159E-03
  57 F= 0.17774678E+03 E0= 0.17780296E+03  d E =-.655175E-01  mag=    -0.0000
       N       E                     dE             d eps       ncg     rms          rms(c)
DAV:   1     0.177922392856E+03    0.17561E+00   -0.26184E+01 10720   0.579E+00    0.673E-01
RMM:   2     0.177328887577E+03   -0.59351E+00   -0.22330E+00 10206   0.119E+00    0.107E+01
RMM:   3     0.177686696688E+03    0.35781E+00   -0.11101E-01 10332   0.286E-01    0.257E+00
RMM:   4     0.177698525403E+03    0.11829E-01   -0.93298E-03 10098   0.723E-02    0.143E+00
RMM:   5     0.177716430836E+03    0.17905E-01   -0.12702E-02  9721   0.708E-02    0.131E+00
RMM:   6     0.177721520063E+03    0.50892E-02   -0.88123E-03  9713   0.594E-02    0.355E-01
RMM:   7     0.177716231087E+03   -0.52890E-02   -0.13809E-03  9739   0.284E-02    0.129E+00
RMM:   8     0.177722678035E+03    0.64469E-02   -0.62260E-04  8771   0.164E-02    0.406E-01
RMM:   9     0.177723023477E+03    0.34544E-03   -0.20075E-04  8210   0.115E-02    0.177E-01
RMM:  10     0.177723135774E+03    0.11230E-03   -0.43744E-05  7038   0.524E-03    0.109E-01
RMM:  11     0.177723157395E+03    0.21621E-04   -0.98773E-06  5833   0.335E-03    0.135E-01
RMM:  12     0.177723206657E+03    0.49262E-04   -0.59604E-06  5491   0.252E-03    0.394E-02
RMM:  13     0.177723202480E+03   -0.41771E-05   -0.14512E-06  4337   0.128E-03
  58 F= 0.17772320E+03 E0= 0.17777720E+03  d E =-.235793E-01  mag=    -0.0000
       N       E                     dE             d eps       ncg     rms          rms(c)
DAV:   1     0.177769759170E+03    0.46553E-01   -0.69000E+00 10744   0.297E+00    0.345E-01
RMM:   2     0.177608588970E+03   -0.16117E+00   -0.58537E-01 10209   0.608E-01    0.584E+00
RMM:   3     0.177708304914E+03    0.99716E-01   -0.29075E-02 10333   0.146E-01    0.132E+00
RMM:   4     0.177710706085E+03    0.24012E-02   -0.24014E-03  9720   0.366E-02    0.795E-01
RMM:   5     0.177715664887E+03    0.49588E-02   -0.33912E-03  9331   0.363E-02    0.731E-01
RMM:   6     0.177717424431E+03    0.17595E-02   -0.22509E-03  9127   0.302E-02    0.127E-01
RMM:   7     0.177716425194E+03   -0.99924E-03   -0.28257E-04  8599   0.133E-02    0.562E-01
RMM:   8     0.177717505630E+03    0.10804E-02   -0.10031E-04  7750   0.676E-03    0.134E-01
RMM:   9     0.177717582789E+03    0.77159E-04   -0.47701E-05  7394   0.571E-03    0.509E-02
RMM:  10     0.177717599023E+03    0.16234E-04   -0.86123E-06  5637   0.261E-03    0.235E-02
RMM:  11     0.177717592127E+03   -0.68960E-05   -0.16463E-06  4358   0.141E-03
  59 F= 0.17771759E+03 E0= 0.17777117E+03  d E =-.291897E-01  mag=    -0.0000
       N       E                     dE             d eps       ncg     rms          rms(c)
DAV:   1     0.177734561366E+03    0.16962E-01   -0.37846E+00 10536   0.206E+00    0.185E-01
RMM:   2     0.177680111692E+03   -0.54450E-01   -0.32991E-01  9612   0.420E-01    0.259E+00
RMM:   3     0.177703289729E+03    0.23178E-01   -0.15396E-02 10092   0.967E-02    0.579E-01
RMM:   4     0.177702608049E+03   -0.68168E-03   -0.16951E-03  9160   0.288E-02    0.755E-01
RMM:   5     0.177704499174E+03    0.18911E-02   -0.28302E-04  8550   0.122E-02    0.478E-01
RMM:   6     0.177705116156E+03    0.61698E-03   -0.70481E-04  8567   0.160E-02    0.158E-01
RMM:   7     0.177705260505E+03    0.14435E-03   -0.35858E-04  8081   0.124E-02    0.318E-01
RMM:   8     0.177705534439E+03    0.27393E-03   -0.92167E-05  7885   0.826E-03    0.888E-02
RMM:   9     0.177705567188E+03    0.32749E-04   -0.41231E-05  7007   0.517E-03    0.183E-02
RMM:  10     0.177705560508E+03   -0.66800E-05   -0.60532E-06  5257   0.232E-03
  60 F= 0.17770556E+03 E0= 0.17775839E+03  d E =-.120316E-01  mag=    -0.0000
       N       E                     dE             d eps       ncg     rms          rms(c)
DAV:   1     0.177942750985E+03    0.23718E+00   -0.34025E+01 10744   0.618E+00    0.528E-01
RMM:   2     0.177552180068E+03   -0.39057E+00   -0.29936E+00 10198   0.127E+00    0.524E+00
RMM:   3     0.177654537238E+03    0.10236E+00   -0.13901E-01 10566   0.286E-01    0.196E+00
RMM:   4     0.177659202542E+03    0.46653E-02   -0.13121E-02  9755   0.809E-02    0.199E+00
RMM:   5     0.177673899927E+03    0.14697E-01   -0.53949E-03  9660   0.482E-02    0.410E-01
RMM:   6     0.177660383339E+03   -0.13517E-01   -0.84224E-03  9565   0.536E-02    0.146E+00
RMM:   7     0.177674870094E+03    0.14487E-01   -0.17657E-03  9192   0.281E-02    0.947E-01
RMM:   8     0.177677259678E+03    0.23896E-02   -0.79468E-04  9543   0.235E-02    0.244E-01
RMM:   9     0.177677562352E+03    0.30267E-03   -0.33358E-04  8540   0.141E-02    0.978E-02
RMM:  10     0.177677596923E+03    0.34571E-04   -0.73022E-05  7564   0.674E-03    0.129E-01
RMM:  11     0.177677660333E+03    0.63410E-04   -0.23111E-05  6652   0.369E-03    0.210E-02
RMM:  12     0.177677651941E+03   -0.83915E-05   -0.27484E-06  4867   0.183E-03
  61 F= 0.17767765E+03 E0= 0.17772919E+03  d E =-.399402E-01  mag=    -0.0000
       N       E                     dE             d eps       ncg     rms          rms(c)
DAV:   1     0.178767669159E+03    0.10900E+01   -0.13586E+02 10696   0.124E+01    0.109E+00
RMM:   2     0.177294667767E+03   -0.14730E+01   -0.12489E+01 10193   0.263E+00    0.836E+00
RMM:   3     0.177530482659E+03    0.23581E+00   -0.57463E-01 10588   0.586E-01    0.500E+00
RMM:   4     0.177588375673E+03    0.57893E-01   -0.38637E-02 10050   0.140E-01    0.272E+00
RMM:   5     0.177608994848E+03    0.20619E-01   -0.21834E-02  9779   0.953E-02    0.301E+00
RMM:   6     0.177632128270E+03    0.23133E-01   -0.31938E-02  9731   0.117E-01    0.103E+00
RMM:   7     0.177632381352E+03    0.25308E-03   -0.10749E-02  9954   0.757E-02    0.264E+00
RMM:   8     0.177654001956E+03    0.21621E-01   -0.50443E-03 10045   0.561E-02    0.662E-01
RMM:   9     0.177655557609E+03    0.15557E-02   -0.17450E-03  9511   0.304E-02    0.272E-01
RMM:  10     0.177655780907E+03    0.22330E-03   -0.34055E-04  8836   0.147E-02    0.191E-01
RMM:  11     0.177656019396E+03    0.23849E-03   -0.11450E-04  7802   0.778E-03    0.180E-01
RMM:  12     0.177656114997E+03    0.95601E-04   -0.21329E-05  6311   0.412E-03    0.154E-01
RMM:  13     0.177656159224E+03    0.44227E-04   -0.57476E-06  5583   0.238E-03    0.228E-02
RMM:  14     0.177656132894E+03   -0.26330E-04   -0.10267E-06  4546   0.144E-03    0.816E-03
RMM:  15     0.177656090585E+03   -0.42309E-04   -0.27505E-06  4009   0.117E-03    0.664E-03
RMM:  16     0.177656053838E+03   -0.36747E-04   -0.26784E-06  3381   0.101E-03    0.285E-03
RMM:  17     0.177656022549E+03   -0.31289E-04   -0.19188E-06  3280   0.952E-04    0.525E-03
RMM:  18     0.177656005417E+03   -0.17132E-04   -0.55868E-08  2621   0.769E-04    0.148E-03
RMM:  19     0.177655997348E+03   -0.80687E-05    0.70061E-07  2578   0.750E-04
  62 F= 0.17765600E+03 E0= 0.17770566E+03  d E =-.615948E-01  mag=    -0.0000
       N       E                     dE             d eps       ncg     rms          rms(c)
DAV:   1     0.177724490542E+03    0.68485E-01   -0.98927E+00 10704   0.330E+00    0.306E-01
RMM:   2     0.177595196929E+03   -0.12929E+00   -0.86963E-01  9751   0.681E-01    0.375E+00
RMM:   3     0.177639601149E+03    0.44404E-01   -0.40496E-02 10426   0.157E-01    0.115E+00
RMM:   4     0.177642218103E+03    0.26170E-02   -0.28618E-03  9258   0.380E-02    0.786E-01
RMM:   5     0.177644237294E+03    0.20192E-02   -0.18122E-03  9009   0.267E-02    0.812E-01
RMM:   6     0.177646194619E+03    0.19573E-02   -0.30586E-03  9355   0.349E-02    0.276E-01
RMM:   7     0.177646072931E+03   -0.12169E-03   -0.62031E-04  9296   0.191E-02    0.570E-01
RMM:   8     0.177647255938E+03    0.11830E-02   -0.19538E-04  8563   0.113E-02    0.156E-01
RMM:   9     0.177647362124E+03    0.10619E-03   -0.10116E-04  7462   0.767E-03    0.485E-02
RMM:  10     0.177647373236E+03    0.11111E-04   -0.27569E-05  6586   0.394E-03    0.436E-02
RMM:  11     0.177647380557E+03    0.73207E-05   -0.38497E-06  4878   0.191E-03
  63 F= 0.17764738E+03 E0= 0.17769583E+03  d E =-.861679E-02  mag=    -0.0000
       N       E                     dE             d eps       ncg     rms          rms(c)
DAV:   1     0.178351147071E+03    0.70377E+00   -0.88901E+01 10752   0.995E+00    0.934E-01
RMM:   2     0.177257581026E+03   -0.10936E+01   -0.80697E+00 10186   0.211E+00    0.939E+00
RMM:   3     0.177540353892E+03    0.28277E+00   -0.37678E-01 10470   0.483E-01    0.409E+00
RMM:   4     0.177577637538E+03    0.37284E-01   -0.23680E-02 10160   0.110E-01    0.206E+00
RMM:   5     0.177605508181E+03    0.27871E-01   -0.24297E-02  9777   0.920E-02    0.222E+00
RMM:   6     0.177621491451E+03    0.15983E-01   -0.28581E-02  9715   0.104E-01    0.723E-01
RMM:   7     0.177614733681E+03   -0.67578E-02   -0.52901E-03  9958   0.564E-02    0.202E+00
RMM:   8     0.177629118083E+03    0.14384E-01   -0.21154E-03 10017   0.352E-02    0.576E-01
RMM:   9     0.177630106130E+03    0.98805E-03   -0.10386E-03  9120   0.232E-02    0.276E-01
RMM:  10     0.177630417611E+03    0.31148E-03   -0.26205E-04  8106   0.113E-02    0.199E-01
RMM:  11     0.177630572400E+03    0.15479E-03   -0.41622E-05  7163   0.505E-03    0.190E-01
RMM:  12     0.177630664065E+03    0.91666E-04   -0.14568E-05  6287   0.331E-03    0.488E-02
RMM:  13     0.177630654875E+03   -0.91899E-05   -0.23318E-06  4845   0.170E-03
  64 F= 0.17763065E+03 E0= 0.17767574E+03  d E =-.253425E-01  mag=    -0.0000
       N       E                     dE             d eps       ncg     rms          rms(c)
DAV:   1     0.180836504142E+03    0.32058E+01   -0.35470E+02 10912   0.201E+01    0.203E+00
RMM:   2     0.176857796511E+03   -0.39787E+01   -0.35233E+01 10186   0.454E+00    0.106E+01
RMM:   3     0.176939132273E+03    0.81336E-01   -0.16173E+00 10429   0.102E+00    0.134E+01
RMM:   4     0.177404509094E+03    0.46538E+00   -0.12509E-01 10072   0.260E-01    0.345E+00
RMM:   5     0.177547070134E+03    0.14256E+00   -0.11087E-01  9877   0.205E-01    0.455E+00
RMM:   6     0.177596648940E+03    0.49579E-01   -0.49665E-02  9789   0.145E-01    0.338E+00
RMM:   7     0.177589179445E+03   -0.74695E-02   -0.24662E-02  9721   0.122E-01    0.425E+00
RMM:   8     0.177642962613E+03    0.53783E-01   -0.25651E-02  9908   0.102E-01    0.101E+00
RMM:   9     0.177642160053E+03   -0.80256E-03   -0.23147E-03  9734   0.368E-02    0.158E+00
RMM:  10     0.177646313314E+03    0.41533E-02   -0.11377E-03  9392   0.246E-02    0.104E+00
RMM:  11     0.177649900297E+03    0.35870E-02   -0.27635E-04  8703   0.165E-02    0.287E-01
RMM:  12     0.177650764278E+03    0.86398E-03   -0.48573E-04  8395   0.154E-02    0.540E-02
RMM:  13     0.177650743540E+03   -0.20738E-04   -0.10784E-04  7375   0.775E-03    0.276E-02
RMM:  14     0.177650706902E+03   -0.36638E-04   -0.10185E-05  6034   0.298E-03    0.117E-02
RMM:  15     0.177650661399E+03   -0.45503E-04   -0.68078E-06  5357   0.207E-03    0.164E-02
RMM:  16     0.177650600721E+03   -0.60678E-04   -0.40291E-06  4398   0.151E-03    0.853E-03
RMM:  17     0.177650549171E+03   -0.51549E-04   -0.38487E-06  4224   0.132E-03    0.111E-02
RMM:  18     0.177650513642E+03   -0.35529E-04   -0.11828E-06  3318   0.961E-04    0.673E-03
RMM:  19     0.177650473823E+03   -0.39820E-04   -0.29544E-06  3759   0.104E-03    0.324E-03
RMM:  20     0.177650459499E+03   -0.14324E-04    0.37358E-07  2760   0.779E-04    0.253E-03
RMM:  21     0.177650452915E+03   -0.65839E-05    0.97467E-07  2792   0.767E-04
  65 F= 0.17765045E+03 E0= 0.17768981E+03  d E =-.554443E-02  mag=    -0.0000
       N       E                     dE             d eps       ncg     rms          rms(c)
DAV:   1     0.179216301739E+03    0.15658E+01   -0.18756E+02 10928   0.146E+01    0.178E+00
RMM:   2     0.175847016411E+03   -0.33693E+01   -0.18338E+01 10224   0.323E+00    0.214E+01
RMM:   3     0.177376326955E+03    0.15293E+01   -0.82489E-01 10308   0.728E-01    0.727E+00
RMM:   4     0.177560301698E+03    0.18397E+00   -0.12623E-01 10131   0.231E-01    0.292E+00
RMM:   5     0.177567682371E+03    0.73807E-02   -0.23961E-02  9935   0.111E-01    0.300E+00
RMM:   6     0.177550275326E+03   -0.17407E-01   -0.25736E-02  9961   0.989E-02    0.436E+00
RMM:   7     0.177618137946E+03    0.67863E-01   -0.14341E-02  9714   0.782E-02    0.725E-01
RMM:   8     0.177628436593E+03    0.10299E-01   -0.78913E-03  9953   0.696E-02    0.351E-01
RMM:   9     0.177629281656E+03    0.84506E-03   -0.35431E-03  9905   0.447E-02    0.347E-01
RMM:  10     0.177629673413E+03    0.39176E-03   -0.21286E-04  8710   0.126E-02    0.546E-02
RMM:  11     0.177629658593E+03   -0.14820E-04   -0.43743E-05  7339   0.557E-03    0.793E-02
RMM:  12     0.177629665302E+03    0.67097E-05   -0.16631E-05  6357   0.349E-03
  66 F= 0.17762967E+03 E0= 0.17767286E+03  d E =-.263320E-01  mag=    -0.0000
       N       E                     dE             d eps       ncg     rms          rms(c)
DAV:   1     0.177641511800E+03    0.11853E-01   -0.15718E+00 10424   0.132E+00    0.117E-01
RMM:   2     0.177625727303E+03   -0.15784E-01   -0.13909E-01  9394   0.272E-01    0.804E-01
RMM:   3     0.177627817369E+03    0.20901E-02   -0.63490E-03  9688   0.612E-02    0.556E-01
RMM:   4     0.177628887628E+03    0.10703E-02   -0.64362E-04  8226   0.168E-02    0.270E-01
RMM:   5     0.177628696046E+03   -0.19158E-03   -0.19107E-04  7758   0.898E-03    0.315E-01
RMM:   6     0.177629259396E+03    0.56335E-03   -0.38044E-04  8180   0.129E-02    0.802E-02
RMM:   7     0.177629015573E+03   -0.24382E-03   -0.80646E-05  7792   0.728E-03    0.262E-01
RMM:   8     0.177629278926E+03    0.26335E-03   -0.26831E-05  6852   0.395E-03    0.311E-02
RMM:   9     0.177629268064E+03   -0.10861E-04   -0.21757E-05  6530   0.367E-03    0.145E-02
RMM:  10     0.177629253271E+03   -0.14793E-04   -0.34433E-06  4283   0.164E-03    0.935E-03
RMM:  11     0.177629240507E+03   -0.12765E-04   -0.12088E-06  3619   0.110E-03    0.840E-03
RMM:  12     0.177629228647E+03   -0.11860E-04   -0.44479E-07  2720   0.817E-04    0.151E-02
RMM:  13     0.177629209944E+03   -0.18702E-04   -0.70396E-07  2935   0.838E-04    0.692E-03
RMM:  14     0.177629190176E+03   -0.19769E-04   -0.83457E-07  3028   0.855E-04    0.759E-03
RMM:  15     0.177629173804E+03   -0.16371E-04   -0.85671E-07  2802   0.816E-04    0.535E-03
RMM:  16     0.177629169134E+03   -0.46704E-05   -0.27674E-07  2273   0.726E-04
  67 F= 0.17762917E+03 E0= 0.17767302E+03  d E =-.268282E-01  mag=    -0.0000
       N       E                     dE             d eps       ncg     rms          rms(c)
DAV:   1     0.177627582627E+03   -0.15912E-02   -0.68379E-01  9748   0.937E-01    0.113E-01
RMM:   2     0.177622574156E+03   -0.50085E-02   -0.44625E-02  9556   0.188E-01    0.329E-01
RMM:   3     0.177623252343E+03    0.67819E-03   -0.19392E-03  9845   0.390E-02    0.355E-01
RMM:   4     0.177621788953E+03   -0.14634E-02   -0.22313E-04  8255   0.108E-02    0.661E-01
RMM:   5     0.177623425201E+03    0.16362E-02   -0.27983E-04  8322   0.117E-02    0.294E-01
RMM:   6     0.177623747694E+03    0.32249E-03   -0.23568E-04  8380   0.105E-02    0.119E-01
RMM:   7     0.177623846728E+03    0.99033E-04   -0.29266E-05  6747   0.425E-03    0.712E-02
RMM:   8     0.177623844525E+03   -0.22029E-05   -0.17681E-05  6427   0.361E-03
  68 F= 0.17762384E+03 E0= 0.17766784E+03  d E =-.532461E-02  mag=    -0.0000
