       N       E                     dE             d eps       ncg     rms          rms(c)
DAV:   1     0.483324625954E+04    0.48332E+04   -0.26003E+05  7192   0.112E+03
DAV:   2    -0.514641142775E+03   -0.53479E+04   -0.51199E+04  7352   0.342E+02
DAV:   3    -0.863588525701E+03   -0.34895E+03   -0.33668E+03  7736   0.924E+01
DAV:   4    -0.877394925021E+03   -0.13806E+02   -0.13614E+02  8296   0.165E+01
DAV:   5    -0.877886144898E+03   -0.49122E+00   -0.48964E+00  8528   0.298E+00    0.159E+02
RMM:   6    -0.813472357250E+03    0.64414E+02   -0.10317E+03  7874   0.359E+01    0.678E+01
RMM:   7    -0.904852653394E+03   -0.91380E+02   -0.30670E+02  7555   0.179E+01    0.786E+01
RMM:   8    -0.786837094184E+03    0.11802E+03   -0.17765E+02  7520   0.154E+01    0.453E+01
RMM:   9    -0.783007863188E+03    0.38292E+01   -0.84739E+01  8150   0.836E+00    0.466E+01
RMM:  10    -0.718587529165E+03    0.64420E+02   -0.26049E+01  7570   0.541E+00    0.256E+01
RMM:  11    -0.716235707070E+03    0.23518E+01   -0.48654E+00  7184   0.263E+00    0.219E+01
RMM:  12    -0.716737460750E+03   -0.50175E+00   -0.25297E+00  7114   0.181E+00    0.207E+01
RMM:  13    -0.718091250338E+03   -0.13538E+01   -0.58095E+00  6514   0.285E+00    0.191E+01
RMM:  14    -0.713299156659E+03    0.47921E+01   -0.12498E+01  6502   0.440E+00    0.138E+01
RMM:  15    -0.715115105018E+03   -0.18159E+01   -0.60191E+00  6757   0.313E+00    0.132E+01
RMM:  16    -0.717369027806E+03   -0.22539E+01   -0.29199E+00  6849   0.208E+00    0.114E+01
RMM:  17    -0.723083191037E+03   -0.57142E+01   -0.25419E+00  6616   0.187E+00    0.912E+00
RMM:  18    -0.729771380448E+03   -0.66882E+01   -0.37510E+00  6627   0.220E+00    0.662E+00
RMM:  19    -0.735552630129E+03   -0.57812E+01   -0.35934E+00  6504   0.201E+00    0.484E+00
RMM:  20    -0.743512094485E+03   -0.79595E+01   -0.51230E+00  6639   0.221E+00    0.416E+00
RMM:  21    -0.748392330787E+03   -0.48802E+01   -0.27701E+00  6749   0.157E+00    0.323E+00
RMM:  22    -0.752497010483E+03   -0.41047E+01   -0.20764E+00  6577   0.128E+00    0.272E+00
RMM:  23    -0.756227793596E+03   -0.37308E+01   -0.21033E+00  6496   0.124E+00    0.232E+00
RMM:  24    -0.761559254671E+03   -0.53315E+01   -0.41293E+00  6407   0.154E+00    0.192E+00
RMM:  25    -0.764286772506E+03   -0.27275E+01   -0.17713E+00  6604   0.940E-01    0.163E+00
RMM:  26    -0.765943576723E+03   -0.16568E+01   -0.90287E-01  6528   0.641E-01    0.143E+00
RMM:  27    -0.767525336018E+03   -0.15818E+01   -0.86664E-01  6399   0.624E-01    0.127E+00
RMM:  28    -0.768776305451E+03   -0.12510E+01   -0.71724E-01  6471   0.548E-01    0.107E+00
RMM:  29    -0.769550838497E+03   -0.77453E+00   -0.41861E-01  6678   0.383E-01    0.860E-01
RMM:  30    -0.770086329091E+03   -0.53549E+00   -0.26454E-01  6585   0.296E-01    0.711E-01
RMM:  31    -0.770636954751E+03   -0.55063E+00   -0.22623E-01  6424   0.279E-01    0.555E-01
RMM:  32    -0.771311259076E+03   -0.67430E+00   -0.18358E-01  6478   0.243E-01    0.387E-01
RMM:  33    -0.771973805979E+03   -0.66255E+00   -0.10100E-01  6645   0.185E-01    0.292E-01
RMM:  34    -0.772529507574E+03   -0.55570E+00   -0.54074E-02  6598   0.135E-01    0.203E-01
RMM:  35    -0.772859155036E+03   -0.32965E+00   -0.24742E-02  6669   0.965E-02    0.132E-01
RMM:  36    -0.772933734134E+03   -0.74579E-01   -0.81120E-03  6981   0.606E-02    0.913E-02
RMM:  37    -0.772952757668E+03   -0.19024E-01   -0.23991E-03  6472   0.327E-02    0.703E-02
RMM:  38    -0.772961311692E+03   -0.85540E-02   -0.10257E-03  5701   0.209E-02    0.559E-02
RMM:  39    -0.772965341579E+03   -0.40299E-02   -0.70583E-04  5421   0.172E-02    0.430E-02
RMM:  40    -0.772967427250E+03   -0.20857E-02   -0.59011E-04  5366   0.157E-02    0.374E-02
RMM:  41    -0.772968905890E+03   -0.14786E-02   -0.67909E-04  5374   0.161E-02    0.321E-02
RMM:  42    -0.772969194618E+03   -0.28873E-03   -0.36342E-04  5261   0.120E-02    0.228E-02
RMM:  43    -0.772969339400E+03   -0.14478E-03   -0.21353E-04  5061   0.101E-02    0.213E-02
RMM:  44    -0.772969112110E+03    0.22729E-03   -0.10331E-04  4885   0.752E-03    0.179E-02
RMM:  45    -0.772968910636E+03    0.20147E-03   -0.57937E-05  4747   0.617E-03    0.158E-02
RMM:  46    -0.772968723621E+03    0.18701E-03   -0.34623E-05  4464   0.503E-03    0.152E-02
RMM:  47    -0.772968657517E+03    0.66104E-04   -0.44159E-05  4509   0.542E-03    0.132E-02
RMM:  48    -0.772968624427E+03    0.33090E-04   -0.46948E-05  4521   0.541E-03    0.123E-02
RMM:  49    -0.772968725752E+03   -0.10132E-03   -0.67240E-05  4692   0.649E-03    0.108E-02
RMM:  50    -0.772968977333E+03   -0.25158E-03   -0.72518E-05  4637   0.655E-03    0.919E-03
RMM:  51    -0.772969325353E+03   -0.34802E-03   -0.11691E-04  4858   0.838E-03    0.768E-03
RMM:  52    -0.772969704209E+03   -0.37886E-03   -0.99721E-05  4792   0.761E-03    0.645E-03
RMM:  53    -0.772969978831E+03   -0.27462E-03   -0.89457E-05  4730   0.724E-03    0.544E-03
RMM:  54    -0.772970157439E+03   -0.17861E-03   -0.93526E-05  4761   0.749E-03    0.450E-03
RMM:  55    -0.772970300342E+03   -0.14290E-03   -0.77780E-05  4657   0.675E-03    0.374E-03
RMM:  56    -0.772970392565E+03   -0.92223E-04   -0.65780E-05  4619   0.625E-03    0.312E-03
RMM:  57    -0.772970443719E+03   -0.51154E-04   -0.36437E-05  4282   0.464E-03    0.243E-03
RMM:  58    -0.772970462272E+03   -0.18553E-04   -0.17655E-05  3951   0.360E-03    0.181E-03
RMM:  59    -0.772970469381E+03   -0.71087E-05   -0.13735E-05  3799   0.330E-03
   1 F= -.77297047E+03 E0= -.77298181E+03  d E =-.772970E+03  mag=     0.0390
       N       E                     dE             d eps       ncg     rms          rms(c)
DAV:   1    -0.773649879030E+03   -0.67942E+00   -0.23748E+01  6896   0.101E+01    0.157E+00
RMM:   2    -0.773889339330E+03   -0.23946E+00   -0.22724E+00  7575   0.269E+00    0.156E+00
RMM:   3    -0.773878160397E+03    0.11179E-01   -0.13923E-01  7196   0.463E-01    0.122E+00
RMM:   4    -0.773888320439E+03   -0.10160E-01   -0.42333E-02  7328   0.223E-01    0.136E+00
RMM:   5    -0.773847883024E+03    0.40437E-01   -0.19667E-02  6705   0.139E-01    0.652E-01
RMM:   6    -0.773845890986E+03    0.19920E-02   -0.97221E-03  7208   0.101E-01    0.503E-01
RMM:   7    -0.773841740182E+03    0.41508E-02   -0.45370E-03  7057   0.718E-02    0.199E-01
RMM:   8    -0.773841183210E+03    0.55697E-03   -0.16704E-03  7092   0.459E-02    0.146E-01
RMM:   9    -0.773840859965E+03    0.32324E-03   -0.47815E-04  6693   0.245E-02    0.671E-02
RMM:  10    -0.773840809429E+03    0.50537E-04   -0.16567E-04  6650   0.153E-02    0.403E-02
RMM:  11    -0.773840782385E+03    0.27044E-04   -0.42688E-05  5536   0.850E-03    0.141E-02
RMM:  12    -0.773840780005E+03    0.23792E-05   -0.98482E-06  4022   0.437E-03
   2 F= -.77384078E+03 E0= -.77385284E+03  d E =-.870311E+00  mag=     0.0340
       N       E                     dE             d eps       ncg     rms          rms(c)
DAV:   1    -0.773688459016E+03    0.15232E+00   -0.21590E+02  6794   0.305E+01    0.528E+00
RMM:   2    -0.776108266841E+03   -0.24198E+01   -0.24034E+01  7558   0.822E+00    0.451E+00
RMM:   3    -0.776028149537E+03    0.80117E-01   -0.15013E+00  7033   0.156E+00    0.383E+00
RMM:   4    -0.775751950129E+03    0.27620E+00   -0.35157E-01  7258   0.690E-01    0.166E+00
RMM:   5    -0.775833615678E+03   -0.81666E-01   -0.10995E-01  7123   0.352E-01    0.216E+00
RMM:   6    -0.775728336324E+03    0.10528E+00   -0.59882E-02  7175   0.238E-01    0.101E+00
RMM:   7    -0.775703553560E+03    0.24783E-01   -0.21534E-02  7344   0.166E-01    0.446E-01
RMM:   8    -0.775701438242E+03    0.21153E-02   -0.82529E-03  7294   0.996E-02    0.405E-01
RMM:   9    -0.775699705387E+03    0.17329E-02   -0.39476E-03  6879   0.671E-02    0.206E-01
RMM:  10    -0.775699224213E+03    0.48117E-03   -0.12967E-03  7185   0.428E-02    0.108E-01
RMM:  11    -0.775699072611E+03    0.15160E-03   -0.37872E-04  6973   0.239E-02    0.487E-02
RMM:  12    -0.775699083102E+03   -0.10491E-04   -0.10003E-04  6570   0.124E-02    0.320E-02
RMM:  13    -0.775699089165E+03   -0.60633E-05   -0.33749E-05  5378   0.719E-03
   3 F= -.77569909E+03 E0= -.77570819E+03  d E =-.272862E+01  mag=     0.0208
       N       E                     dE             d eps       ncg     rms          rms(c)
DAV:   1    -0.765035584886E+03    0.10663E+02   -0.88563E+02  6784   0.611E+01    0.126E+01
RMM:   2    -0.776137347628E+03   -0.11102E+02   -0.11540E+02  7583   0.166E+01    0.857E+00
RMM:   3    -0.776535026522E+03   -0.39768E+00   -0.68461E+00  6840   0.351E+00    0.743E+00
RMM:   4    -0.775314016863E+03    0.12210E+01   -0.19674E+00  7320   0.173E+00    0.411E+00
RMM:   5    -0.775374380342E+03   -0.60363E-01   -0.67792E-01  6816   0.913E-01    0.318E+00
RMM:   6    -0.775220475771E+03    0.15390E+00   -0.21328E-01  7399   0.510E-01    0.248E+00
RMM:   7    -0.775051846056E+03    0.16863E+00   -0.13616E-01  6528   0.363E-01    0.106E+00
RMM:   8    -0.775029488331E+03    0.22358E-01   -0.26189E-02  7387   0.197E-01    0.565E-01
RMM:   9    -0.775027395265E+03    0.20931E-02   -0.10472E-02  7032   0.119E-01    0.323E-01
RMM:  10    -0.775026461919E+03    0.93335E-03   -0.30325E-03  7359   0.688E-02    0.202E-01
RMM:  11    -0.775026318316E+03    0.14360E-03   -0.14457E-03  7133   0.416E-02    0.154E-01
RMM:  12    -0.775025875725E+03    0.44259E-03   -0.58544E-04  7169   0.284E-02    0.687E-02
RMM:  13    -0.775025850414E+03    0.25310E-04   -0.14020E-04  6641   0.134E-02    0.352E-02
RMM:  14    -0.775025902284E+03   -0.51869E-04   -0.47069E-05  5949   0.875E-03    0.206E-02
RMM:  15    -0.775025945546E+03   -0.43262E-04   -0.13240E-05  4056   0.497E-03    0.988E-03
RMM:  16    -0.775025995351E+03   -0.49805E-04   -0.58841E-06  3982   0.328E-03    0.692E-03
RMM:  17    -0.775026036360E+03   -0.41009E-04   -0.35690E-06  3914   0.235E-03    0.440E-03
RMM:  18    -0.775026090912E+03   -0.54552E-04   -0.37354E-06  3513   0.181E-03    0.278E-03
RMM:  19    -0.775026126064E+03   -0.35152E-04   -0.23010E-06  2876   0.146E-03    0.231E-03
RMM:  20    -0.775026155385E+03   -0.29322E-04   -0.22013E-06  2741   0.136E-03    0.192E-03
RMM:  21    -0.775026175976E+03   -0.20591E-04   -0.17387E-06  2662   0.124E-03    0.163E-03
RMM:  22    -0.775026191155E+03   -0.15179E-04   -0.15123E-06  2317   0.113E-03    0.118E-03
RMM:  23    -0.775026203294E+03   -0.12139E-04   -0.17184E-06  2267   0.114E-03    0.825E-04
RMM:  24    -0.775026207821E+03   -0.45270E-05   -0.58861E-07  1934   0.989E-04
   4 F= -.77502621E+03 E0= -.77502179E+03  d E =-.205574E+01  mag=     0.0018
       N       E                     dE             d eps       ncg     rms          rms(c)
DAV:   1    -0.772730643284E+03    0.22956E+01   -0.36077E+02  6928   0.394E+01    0.718E+00
RMM:   2    -0.778697459803E+03   -0.59668E+01   -0.45357E+01  7544   0.109E+01    0.900E+00
RMM:   3    -0.776883697698E+03    0.18138E+01   -0.21505E+00  7427   0.195E+00    0.555E+00
RMM:   4    -0.776844615185E+03    0.39083E-01   -0.97847E-01  7213   0.107E+00    0.497E+00
RMM:   5    -0.776333079014E+03    0.51154E+00   -0.58165E-01  7113   0.853E-01    0.248E+00
RMM:   6    -0.776307715713E+03    0.25363E-01   -0.23603E-01  7413   0.570E-01    0.207E+00
RMM:   7    -0.776228528237E+03    0.79187E-01   -0.75839E-02  7238   0.335E-01    0.464E-01
RMM:   8    -0.776231533987E+03   -0.30057E-02   -0.19959E-02  7195   0.150E-01    0.612E-01
RMM:   9    -0.776225185855E+03    0.63481E-02   -0.94900E-03  6896   0.104E-01    0.231E-01
RMM:  10    -0.776224295013E+03    0.89084E-03   -0.22580E-03  6922   0.521E-02    0.124E-01
RMM:  11    -0.776224250191E+03    0.44822E-04   -0.53009E-04  7341   0.273E-02    0.821E-02
RMM:  12    -0.776224309501E+03   -0.59310E-04   -0.20541E-04  6416   0.161E-02    0.571E-02
RMM:  13    -0.776224330126E+03   -0.20625E-04   -0.98345E-05  6432   0.116E-02    0.424E-02
RMM:  14    -0.776224333721E+03   -0.35955E-05   -0.46627E-05  5485   0.805E-03
   5 F= -.77622433E+03 E0= -.77622876E+03  d E =-.325386E+01  mag=     0.0008
       N       E                     dE             d eps       ncg     rms          rms(c)
DAV:   1    -0.776212388027E+03    0.11942E-01   -0.28592E+00  6832   0.356E+00    0.647E-01
RMM:   2    -0.776241976084E+03   -0.29588E-01   -0.27093E-01  7514   0.933E-01    0.526E-01
RMM:   3    -0.776245019546E+03   -0.30435E-02   -0.15179E-02  7653   0.156E-01    0.568E-01
RMM:   4    -0.776242175619E+03    0.28439E-02   -0.95625E-03  6780   0.985E-02    0.519E-01
RMM:   5    -0.776234956316E+03    0.72193E-02   -0.46839E-03  7218   0.780E-02    0.158E-01
RMM:   6    -0.776234976240E+03   -0.19924E-04   -0.12091E-03  6904   0.389E-02    0.143E-01
RMM:   7    -0.776234682321E+03    0.29392E-03   -0.56427E-04  6319   0.259E-02    0.572E-02
RMM:   8    -0.776234644289E+03    0.38032E-04   -0.11378E-04  6197   0.126E-02    0.351E-02
RMM:   9    -0.776234628513E+03    0.15776E-04   -0.36272E-05  5434   0.750E-03    0.178E-02
RMM:  10    -0.776234627744E+03    0.76924E-06   -0.91827E-06  3945   0.439E-03
   6 F= -.77623463E+03 E0= -.77623820E+03  d E =-.326416E+01  mag=     0.0004
       N       E                     dE             d eps       ncg     rms          rms(c)
DAV:   1    -0.776520081150E+03   -0.28545E+00   -0.17717E+01  6616   0.903E+00    0.114E+00
RMM:   2    -0.776661236440E+03   -0.14116E+00   -0.14768E+00  7658   0.248E+00    0.875E-01
RMM:   3    -0.776685600658E+03   -0.24364E-01   -0.74589E-02  7840   0.382E-01    0.113E+00
RMM:   4    -0.776656841660E+03    0.28759E-01   -0.23690E-02  7130   0.167E-01    0.701E-01
RMM:   5    -0.776643861100E+03    0.12981E-01   -0.12584E-02  6980   0.122E-01    0.343E-01
RMM:   6    -0.776642755259E+03    0.11058E-02   -0.48201E-03  7009   0.758E-02    0.255E-01
RMM:   7    -0.776641870568E+03    0.88469E-03   -0.21082E-03  6859   0.550E-02    0.854E-02
RMM:   8    -0.776641818688E+03    0.51880E-04   -0.37186E-04  6746   0.233E-02    0.729E-02
RMM:   9    -0.776641752032E+03    0.66656E-04   -0.12829E-04  6354   0.142E-02    0.329E-02
RMM:  10    -0.776641738268E+03    0.13764E-04   -0.36113E-05  5518   0.771E-03    0.205E-02
RMM:  11    -0.776641731802E+03    0.64655E-05   -0.11831E-05  4063   0.500E-03
   7 F= -.77664173E+03 E0= -.77664428E+03  d E =-.407104E+00  mag=     0.0003
       N       E                     dE             d eps       ncg     rms          rms(c)
DAV:   1    -0.776067268694E+03    0.57447E+00   -0.14728E+02  6600   0.261E+01    0.336E+00
RMM:   2    -0.777278941551E+03   -0.12117E+01   -0.12730E+01  7656   0.721E+00    0.251E+00
RMM:   3    -0.777558156513E+03   -0.27921E+00   -0.65698E-01  7877   0.114E+00    0.350E+00
RMM:   4    -0.777237011761E+03    0.32114E+00   -0.20220E-01  7099   0.492E-01    0.183E+00
RMM:   5    -0.777145059891E+03    0.91952E-01   -0.10609E-01  7153   0.364E-01    0.100E+00
RMM:   6    -0.777133429522E+03    0.11630E-01   -0.41605E-02  6904   0.220E-01    0.702E-01
RMM:   7    -0.777126832059E+03    0.65975E-02   -0.16403E-02  6998   0.155E-01    0.291E-01
RMM:   8    -0.777126151195E+03    0.68086E-03   -0.36271E-03  6995   0.708E-02    0.218E-01
RMM:   9    -0.777125795088E+03    0.35611E-03   -0.14597E-03  7218   0.462E-02    0.135E-01
RMM:  10    -0.777125402745E+03    0.39234E-03   -0.43922E-04  7041   0.247E-02    0.613E-02
RMM:  11    -0.777125353807E+03    0.48939E-04   -0.14663E-04  6414   0.142E-02    0.357E-02
RMM:  12    -0.777125356769E+03   -0.29622E-05   -0.42531E-05  5625   0.821E-03
   8 F= -.77712536E+03 E0= -.77712522E+03  d E =-.890729E+00  mag=     0.0002
       N       E                     dE             d eps       ncg     rms          rms(c)
DAV:   1    -0.777182174559E+03   -0.56821E-01   -0.17375E+01  6424   0.894E+00    0.108E+00
RMM:   2    -0.777312090358E+03   -0.12992E+00   -0.14777E+00  7612   0.245E+00    0.717E-01
RMM:   3    -0.777314343633E+03   -0.22533E-02   -0.68246E-02  7734   0.375E-01    0.753E-01
RMM:   4    -0.777310792810E+03    0.35508E-02   -0.19160E-02  7374   0.160E-01    0.627E-01
RMM:   5    -0.777302494189E+03    0.82986E-02   -0.76979E-03  7417   0.896E-02    0.392E-01
RMM:   6    -0.777299300629E+03    0.31936E-02   -0.44664E-03  7123   0.720E-02    0.276E-01
RMM:   7    -0.777297967185E+03    0.13334E-02   -0.16696E-03  7152   0.511E-02    0.771E-02
RMM:   8    -0.777298011528E+03   -0.44343E-04   -0.45555E-04  6662   0.239E-02    0.802E-02
RMM:   9    -0.777297922711E+03    0.88817E-04   -0.14705E-04  6069   0.145E-02    0.314E-02
RMM:  10    -0.777297916257E+03    0.64542E-05   -0.31977E-05  5537   0.731E-03
   9 F= -.77729792E+03 E0= -.77729694E+03  d E =-.172559E+00  mag=     0.0001
       N       E                     dE             d eps       ncg     rms          rms(c)
DAV:   1    -0.777212156414E+03    0.85766E-01   -0.21721E+01  6372   0.999E+00    0.118E+00
RMM:   2    -0.777374781061E+03   -0.16262E+00   -0.18479E+00  7610   0.274E+00    0.779E-01
RMM:   3    -0.777373981093E+03    0.79997E-03   -0.82485E-02  7760   0.414E-01    0.751E-01
RMM:   4    -0.777364669263E+03    0.93118E-02   -0.22045E-02  7400   0.176E-01    0.508E-01
RMM:   5    -0.777366457852E+03   -0.17886E-02   -0.78359E-03  7610   0.935E-02    0.517E-01
RMM:   6    -0.777359418659E+03    0.70392E-02   -0.52998E-03  6936   0.718E-02    0.310E-01
RMM:   7    -0.777357671364E+03    0.17473E-02   -0.20935E-03  7181   0.569E-02    0.910E-02
RMM:   8    -0.777357717806E+03   -0.46442E-04   -0.59599E-04  6655   0.266E-02    0.926E-02
RMM:   9    -0.777357595435E+03    0.12237E-03   -0.18603E-04  6108   0.158E-02    0.346E-02
RMM:  10    -0.777357584912E+03    0.10523E-04   -0.40769E-05  6013   0.819E-03    0.201E-02
RMM:  11    -0.777357590838E+03   -0.59260E-05   -0.12720E-05  4053   0.501E-03
  10 F= -.77735759E+03 E0= -.77735594E+03  d E =-.232234E+00  mag=     0.0001
       N       E                     dE             d eps       ncg     rms          rms(c)
DAV:   1    -0.777393161318E+03   -0.35576E-01   -0.11800E+01  6326   0.711E+00    0.959E-01
RMM:   2    -0.777475919141E+03   -0.82758E-01   -0.87258E-01  7534   0.182E+00    0.758E-01
RMM:   3    -0.777499125423E+03   -0.23206E-01   -0.52384E-02  7700   0.295E-01    0.104E+00
RMM:   4    -0.777463308321E+03    0.35817E-01   -0.16525E-02  7150   0.139E-01    0.438E-01
RMM:   5    -0.777460203414E+03    0.31049E-02   -0.66984E-03  7216   0.952E-02    0.269E-01
RMM:   6    -0.777459453161E+03    0.75025E-03   -0.28652E-03  7136   0.587E-02    0.204E-01
RMM:   7    -0.777458697817E+03    0.75534E-03   -0.86470E-04  7097   0.374E-02    0.549E-02
RMM:   8    -0.777458711940E+03   -0.14123E-04   -0.17795E-04  7187   0.159E-02    0.466E-02
RMM:   9    -0.777458687996E+03    0.23944E-04   -0.64648E-05  6078   0.996E-03    0.268E-02
RMM:  10    -0.777458685144E+03    0.28523E-05   -0.27023E-05  4653   0.642E-03
  11 F= -.77745869E+03 E0= -.77745571E+03  d E =-.101094E+00  mag=     0.0000
       N       E                     dE             d eps       ncg     rms          rms(c)
DAV:   1    -0.777393050584E+03    0.65637E-01   -0.18507E+01  6320   0.891E+00    0.120E+00
RMM:   2    -0.777523594835E+03   -0.13054E+00   -0.13757E+00  7528   0.228E+00    0.941E-01
RMM:   3    -0.777559349575E+03   -0.35755E-01   -0.81904E-02  7726   0.371E-01    0.129E+00
RMM:   4    -0.777504201681E+03    0.55148E-01   -0.25980E-02  7164   0.175E-01    0.565E-01
RMM:   5    -0.777498897112E+03    0.53046E-02   -0.10551E-02  7235   0.119E-01    0.335E-01
RMM:   6    -0.777497659927E+03    0.12372E-02   -0.43308E-03  7226   0.732E-02    0.252E-01
RMM:   7    -0.777496497396E+03    0.11625E-02   -0.13174E-03  7197   0.463E-02    0.718E-02
RMM:   8    -0.777496535003E+03   -0.37607E-04   -0.30782E-04  7343   0.206E-02    0.651E-02
RMM:   9    -0.777496480124E+03    0.54879E-04   -0.12098E-04  6304   0.131E-02    0.360E-02
RMM:  10    -0.777496471205E+03    0.89182E-05   -0.49086E-05  5208   0.813E-03
  12 F= -.77749647E+03 E0= -.77749213E+03  d E =-.138880E+00  mag=     0.0000
       N       E                     dE             d eps       ncg     rms          rms(c)
DAV:   1    -0.777436429806E+03    0.60050E-01   -0.14651E+01  6724   0.803E+00    0.106E+00
RMM:   2    -0.777628169567E+03   -0.19174E+00   -0.14640E+00  7656   0.247E+00    0.158E+00
RMM:   3    -0.777576911042E+03    0.51259E-01   -0.73160E-02  7575   0.374E-01    0.880E-01
RMM:   4    -0.777565851979E+03    0.11059E-01   -0.22272E-02  7269   0.170E-01    0.646E-01
RMM:   5    -0.777556689473E+03    0.91625E-02   -0.11123E-02  7085   0.114E-01    0.336E-01
RMM:   6    -0.777555313082E+03    0.13764E-02   -0.46563E-03  7261   0.813E-02    0.261E-01
RMM:   7    -0.777554329774E+03    0.98331E-03   -0.13854E-03  6972   0.452E-02    0.781E-02
RMM:   8    -0.777554309580E+03    0.20194E-04   -0.32669E-04  6532   0.208E-02    0.638E-02
RMM:   9    -0.777554259464E+03    0.50117E-04   -0.11043E-04  5896   0.127E-02    0.283E-02
RMM:  10    -0.777554246488E+03    0.12975E-04   -0.28148E-05  5295   0.711E-03    0.180E-02
RMM:  11    -0.777554244423E+03    0.20648E-05   -0.80359E-06  3950   0.430E-03
  13 F= -.77755424E+03 E0= -.77754954E+03  d E =-.577732E-01  mag=     0.0000
       N       E                     dE             d eps       ncg     rms          rms(c)
DAV:   1    -0.777546316117E+03    0.79304E-02   -0.13187E+00  6688   0.241E+00    0.318E-01
RMM:   2    -0.777563500095E+03   -0.17184E-01   -0.13138E-01  7649   0.738E-01    0.475E-01
RMM:   3    -0.777558946554E+03    0.45535E-02   -0.66177E-03  7625   0.112E-01    0.266E-01
RMM:   4    -0.777558007095E+03    0.93946E-03   -0.20308E-03  7260   0.508E-02    0.200E-01
RMM:   5    -0.777557091733E+03    0.91536E-03   -0.99206E-04  7109   0.340E-02    0.981E-02
RMM:   6    -0.777556989644E+03    0.10209E-03   -0.41698E-04  7024   0.241E-02    0.783E-02
RMM:   7    -0.777556902040E+03    0.87604E-04   -0.12435E-04  6209   0.137E-02    0.227E-02
RMM:   8    -0.777556901410E+03    0.62932E-06   -0.26153E-05  4612   0.658E-03
  14 F= -.77755690E+03 E0= -.77755204E+03  d E =-.604302E-01  mag=     0.0000
       N       E                     dE             d eps       ncg     rms          rms(c)
DAV:   1    -0.777528233760E+03    0.28668E-01   -0.73770E+00  7232   0.576E+00    0.687E-01
RMM:   2    -0.777595701668E+03   -0.67468E-01   -0.72537E-01  7628   0.166E+00    0.583E-01
RMM:   3    -0.777603915963E+03   -0.82143E-02   -0.40220E-02  7497   0.266E-01    0.665E-01
RMM:   4    -0.777595972229E+03    0.79437E-02   -0.74257E-03  7286   0.942E-02    0.444E-01
RMM:   5    -0.777590517936E+03    0.54543E-02   -0.43513E-03  6949   0.687E-02    0.192E-01
RMM:   6    -0.777590228764E+03    0.28917E-03   -0.14628E-03  7397   0.449E-02    0.151E-01
RMM:   7    -0.777589820638E+03    0.40813E-03   -0.70436E-04  6809   0.309E-02    0.554E-02
RMM:   8    -0.777589810496E+03    0.10143E-04   -0.17529E-04  6358   0.156E-02    0.457E-02
RMM:   9    -0.777589779189E+03    0.31307E-04   -0.46231E-05  5469   0.839E-03    0.188E-02
RMM:  10    -0.777589776406E+03    0.27826E-05   -0.92653E-06  3943   0.457E-03
  15 F= -.77758978E+03 E0= -.77758497E+03  d E =-.328750E-01  mag=     0.0000
       N       E                     dE             d eps       ncg     rms          rms(c)
DAV:   1    -0.777568210727E+03    0.21568E-01   -0.32995E+00  7290   0.385E+00    0.460E-01
RMM:   2    -0.777598187607E+03   -0.29977E-01   -0.32328E-01  7626   0.111E+00    0.387E-01
RMM:   3    -0.777601841660E+03   -0.36541E-02   -0.18027E-02  7511   0.178E-01    0.443E-01
RMM:   4    -0.777598419566E+03    0.34221E-02   -0.32909E-03  7260   0.620E-02    0.296E-01
RMM:   5    -0.777595986761E+03    0.24328E-02   -0.19439E-03  6936   0.457E-02    0.130E-01
RMM:   6    -0.777595858965E+03    0.12780E-03   -0.65965E-04  7368   0.302E-02    0.101E-01
RMM:   7    -0.777595680999E+03    0.17797E-03   -0.30300E-04  6579   0.206E-02    0.363E-02
RMM:   8    -0.777595681339E+03   -0.34035E-06   -0.77303E-05  5963   0.104E-02
  16 F= -.77759568E+03 E0= -.77759083E+03  d E =-.387799E-01  mag=     0.0000
       N       E                     dE             d eps       ncg     rms          rms(c)
DAV:   1    -0.777539597266E+03    0.56084E-01   -0.10251E+01  7024   0.710E+00    0.749E-01
RMM:   2    -0.777648965651E+03   -0.10937E+00   -0.99547E-01  7628   0.199E+00    0.957E-01
RMM:   3    -0.777640373811E+03    0.85918E-02   -0.48459E-02  7620   0.301E-01    0.661E-01
RMM:   4    -0.777629331766E+03    0.11042E-01   -0.11384E-02  7402   0.122E-01    0.459E-01
RMM:   5    -0.777624605179E+03    0.47266E-02   -0.42628E-03  7171   0.746E-02    0.203E-01
RMM:   6    -0.777624145257E+03    0.45992E-03   -0.14856E-03  7429   0.458E-02    0.150E-01
RMM:   7    -0.777623882277E+03    0.26298E-03   -0.63760E-04  7113   0.322E-02    0.585E-02
RMM:   8    -0.777623890032E+03   -0.77544E-05   -0.19378E-04  6683   0.169E-02    0.591E-02
RMM:   9    -0.777623832071E+03    0.57961E-04   -0.61553E-05  5887   0.991E-03    0.258E-02
RMM:  10    -0.777623827455E+03    0.46161E-05   -0.16920E-05  4290   0.572E-03
  17 F= -.77762383E+03 E0= -.77761874E+03  d E =-.281461E-01  mag=     0.0000
       N       E                     dE             d eps       ncg     rms          rms(c)
DAV:   1    -0.777543411014E+03    0.80421E-01   -0.10957E+01  7040   0.734E+00    0.777E-01
RMM:   2    -0.777660327381E+03   -0.11692E+00   -0.10629E+00  7624   0.205E+00    0.989E-01
RMM:   3    -0.777651034415E+03    0.92930E-02   -0.52097E-02  7639   0.312E-01    0.683E-01
RMM:   4    -0.777639230977E+03    0.11803E-01   -0.12252E-02  7390   0.127E-01    0.476E-01
RMM:   5    -0.777634098558E+03    0.51324E-02   -0.45873E-03  7176   0.775E-02    0.209E-01
RMM:   6    -0.777633610429E+03    0.48813E-03   -0.15932E-03  7447   0.475E-02    0.156E-01
RMM:   7    -0.777633309284E+03    0.30115E-03   -0.67128E-04  7138   0.332E-02    0.560E-02
RMM:   8    -0.777633305898E+03    0.33855E-05   -0.18100E-04  6767   0.167E-02    0.511E-02
RMM:   9    -0.777633272059E+03    0.33839E-04   -0.55338E-05  5870   0.972E-03    0.266E-02
RMM:  10    -0.777633267638E+03    0.44209E-05   -0.16413E-05  4333   0.557E-03
  18 F= -.77763327E+03 E0= -.77762792E+03  d E =-.375863E-01  mag=     0.0000
       N       E                     dE             d eps       ncg     rms          rms(c)
DAV:   1    -0.777621657824E+03    0.11614E-01   -0.37845E+00  7010   0.424E+00    0.469E-01
RMM:   2    -0.777664358178E+03   -0.42700E-01   -0.37855E-01  7638   0.125E+00    0.648E-01
RMM:   3    -0.777659552318E+03    0.48059E-02   -0.19645E-02  7553   0.193E-01    0.406E-01
RMM:   4    -0.777655526806E+03    0.40255E-02   -0.43019E-03  7282   0.768E-02    0.285E-01
RMM:   5    -0.777653582537E+03    0.19443E-02   -0.17796E-03  7038   0.476E-02    0.123E-01
RMM:   6    -0.777653450099E+03    0.13244E-03   -0.53080E-04  7387   0.281E-02    0.878E-02
RMM:   7    -0.777653345705E+03    0.10439E-03   -0.22836E-04  6783   0.192E-02    0.331E-02
RMM:   8    -0.777653345758E+03   -0.52794E-07   -0.55572E-05  5900   0.950E-03
  19 F= -.77765335E+03 E0= -.77764814E+03  d E =-.200781E-01  mag=     0.0000
       N       E                     dE             d eps       ncg     rms          rms(c)
DAV:   1    -0.777406784914E+03    0.24656E+00   -0.34066E+01  6992   0.127E+01    0.142E+00
RMM:   2    -0.777798095480E+03   -0.39131E+00   -0.34302E+00  7635   0.378E+00    0.198E+00
RMM:   3    -0.777748312118E+03    0.49783E-01   -0.17945E-01  7591   0.586E-01    0.122E+00
RMM:   4    -0.777711892586E+03    0.36420E-01   -0.39231E-02  7286   0.233E-01    0.848E-01
RMM:   5    -0.777695156173E+03    0.16736E-01   -0.16384E-02  7007   0.144E-01    0.376E-01
RMM:   6    -0.777693620480E+03    0.15357E-02   -0.50032E-03  7385   0.865E-02    0.262E-01
RMM:   7    -0.777692586285E+03    0.10342E-02   -0.19918E-03  7152   0.568E-02    0.948E-02
RMM:   8    -0.777692481098E+03    0.10519E-03   -0.41211E-04  7249   0.258E-02    0.555E-02
RMM:   9    -0.777692459014E+03    0.22084E-04   -0.10184E-04  6607   0.134E-02    0.308E-02
RMM:  10    -0.777692456381E+03    0.26336E-05   -0.28774E-05  4963   0.723E-03
  20 F= -.77769246E+03 E0= -.77768770E+03  d E =-.591887E-01  mag=     0.0000
       N       E                     dE             d eps       ncg     rms          rms(c)
DAV:   1    -0.776513695654E+03    0.11788E+01   -0.13643E+02  6976   0.256E+01    0.290E+00
RMM:   2    -0.778146665419E+03   -0.16330E+01   -0.13946E+01  7637   0.761E+00    0.415E+00
RMM:   3    -0.777882273049E+03    0.26439E+00   -0.73752E-01  7549   0.119E+00    0.239E+00
RMM:   4    -0.777746732968E+03    0.13554E+00   -0.16357E-01  7307   0.482E-01    0.169E+00
RMM:   5    -0.777682556176E+03    0.64177E-01   -0.68782E-02  6949   0.294E-01    0.771E-01
RMM:   6    -0.777675365549E+03    0.71906E-02   -0.21863E-02  7334   0.181E-01    0.539E-01
RMM:   7    -0.777671174253E+03    0.41913E-02   -0.77389E-03  7133   0.111E-01    0.208E-01
RMM:   8    -0.777671057373E+03    0.11688E-03   -0.23148E-03  7108   0.562E-02    0.183E-01
RMM:   9    -0.777670561507E+03    0.49587E-03   -0.92088E-04  7010   0.360E-02    0.953E-02
RMM:  10    -0.777670438895E+03    0.12261E-03   -0.21940E-04  6765   0.186E-02    0.474E-02
RMM:  11    -0.777670426205E+03    0.12690E-04   -0.76902E-05  6149   0.109E-02    0.316E-02
RMM:  12    -0.777670434393E+03   -0.81877E-05   -0.38879E-05  5287   0.746E-03
  21 F= -.77767043E+03 E0= -.77766660E+03  d E =-.371668E-01  mag=     0.0000
       N       E                     dE             d eps       ncg     rms          rms(c)
DAV:   1    -0.777167571210E+03    0.50285E+00   -0.63927E+01  6976   0.175E+01    0.189E+00
RMM:   2    -0.777864303881E+03   -0.69673E+00   -0.63646E+00  7644   0.511E+00    0.257E+00
RMM:   3    -0.777807882290E+03    0.56422E-01   -0.33447E-01  7549   0.797E-01    0.167E+00
RMM:   4    -0.777745293897E+03    0.62588E-01   -0.71364E-02  7332   0.310E-01    0.123E+00
RMM:   5    -0.777704813466E+03    0.40480E-01   -0.29087E-02  7192   0.197E-01    0.493E-01
RMM:   6    -0.777703039937E+03    0.17735E-02   -0.86759E-03  7386   0.113E-01    0.363E-01
RMM:   7    -0.777701422589E+03    0.16173E-02   -0.39941E-03  7168   0.810E-02    0.152E-01
RMM:   8    -0.777701439982E+03   -0.17392E-04   -0.12530E-03  7234   0.433E-02    0.144E-01
RMM:   9    -0.777701110787E+03    0.32920E-03   -0.47233E-04  6529   0.254E-02    0.628E-02
RMM:  10    -0.777701064566E+03    0.46221E-04   -0.10205E-04  6406   0.133E-02    0.360E-02
RMM:  11    -0.777701056043E+03    0.85228E-05   -0.35798E-05  5269   0.755E-03
  22 F= -.77770106E+03 E0= -.77769656E+03  d E =-.677884E-01  mag=    -0.0000
       N       E                     dE             d eps       ncg     rms          rms(c)
DAV:   1    -0.777666387607E+03    0.34677E-01   -0.78262E+00  6898   0.589E+00    0.733E-01
RMM:   2    -0.777744531497E+03   -0.78144E-01   -0.70484E-01  7646   0.170E+00    0.874E-01
RMM:   3    -0.777737134487E+03    0.73970E-02   -0.36945E-02  7661   0.263E-01    0.624E-01
RMM:   4    -0.777730405732E+03    0.67288E-02   -0.10481E-02  7280   0.117E-01    0.478E-01
RMM:   5    -0.777724629767E+03    0.57760E-02   -0.55545E-03  7054   0.818E-02    0.189E-01
RMM:   6    -0.777724139193E+03    0.49057E-03   -0.14496E-03  7459   0.464E-02    0.138E-01
RMM:   7    -0.777723844993E+03    0.29420E-03   -0.48177E-04  7186   0.281E-02    0.515E-02
RMM:   8    -0.777723832985E+03    0.12007E-04   -0.12352E-04  6682   0.135E-02    0.402E-02
RMM:   9    -0.777723810785E+03    0.22200E-04   -0.35523E-05  5269   0.799E-03    0.199E-02
RMM:  10    -0.777723806131E+03    0.46543E-05   -0.97603E-06  3992   0.471E-03
  23 F= -.77772381E+03 E0= -.77771968E+03  d E =-.227501E-01  mag=    -0.0000
       N       E                     dE             d eps       ncg     rms          rms(c)
DAV:   1    -0.777719106444E+03    0.47043E-02   -0.98268E-01  7088   0.209E+00    0.260E-01
RMM:   2    -0.777728881976E+03   -0.97755E-02   -0.88400E-02  7648   0.602E-01    0.313E-01
RMM:   3    -0.777727991685E+03    0.89029E-03   -0.46740E-03  7637   0.935E-02    0.222E-01
RMM:   4    -0.777727184506E+03    0.80718E-03   -0.13318E-03  7257   0.415E-02    0.172E-01
RMM:   5    -0.777726428057E+03    0.75645E-03   -0.71515E-04  6997   0.294E-02    0.671E-02
RMM:   6    -0.777726374982E+03    0.53075E-04   -0.18643E-04  7026   0.167E-02    0.494E-02
RMM:   7    -0.777726336828E+03    0.38154E-04   -0.63631E-05  6205   0.105E-02    0.167E-02
RMM:   8    -0.777726336253E+03    0.57481E-06   -0.11735E-05  3967   0.512E-03
  24 F= -.77772634E+03 E0= -.77772233E+03  d E =-.252802E-01  mag=     0.0000
       N       E                     dE             d eps       ncg     rms          rms(c)
DAV:   1    -0.777723832709E+03    0.25041E-02   -0.19764E+00  6616   0.297E+00    0.403E-01
RMM:   2    -0.777746775940E+03   -0.22943E-01   -0.16789E-01  7620   0.834E-01    0.539E-01
RMM:   3    -0.777739770347E+03    0.70056E-02   -0.90064E-03  7643   0.130E-01    0.324E-01
RMM:   4    -0.777738470909E+03    0.12994E-02   -0.35617E-03  7173   0.690E-02    0.254E-01
RMM:   5    -0.777737019031E+03    0.14519E-02   -0.16423E-03  7184   0.463E-02    0.104E-01
RMM:   6    -0.777736914610E+03    0.10442E-03   -0.61784E-04  6860   0.279E-02    0.991E-02
RMM:   7    -0.777736778390E+03    0.13622E-03   -0.24623E-04  5916   0.172E-02    0.312E-02
RMM:   8    -0.777736767544E+03    0.10846E-04   -0.38151E-05  5453   0.803E-03    0.183E-02
RMM:   9    -0.777736764645E+03    0.28988E-05   -0.95582E-06  3956   0.459E-03
  25 F= -.77773676E+03 E0= -.77773267E+03  d E =-.104284E-01  mag=     0.0000
       N       E                     dE             d eps       ncg     rms          rms(c)
DAV:   1    -0.777735605708E+03    0.11618E-02   -0.37990E-01  6504   0.130E+00    0.176E-01
RMM:   2    -0.777739973805E+03   -0.43681E-02   -0.32237E-02  7614   0.365E-01    0.233E-01
RMM:   3    -0.777738683235E+03    0.12906E-02   -0.17259E-03  7670   0.571E-02    0.142E-01
RMM:   4    -0.777738422911E+03    0.26032E-03   -0.67674E-04  7092   0.301E-02    0.110E-01
RMM:   5    -0.777738156323E+03    0.26659E-03   -0.31046E-04  6842   0.203E-02    0.457E-02
RMM:   6    -0.777738141645E+03    0.14678E-04   -0.11792E-04  6129   0.123E-02    0.445E-02
RMM:   7    -0.777738114075E+03    0.27570E-04   -0.47442E-05  4983   0.815E-03    0.135E-02
RMM:   8    -0.777738113046E+03    0.10292E-05   -0.73535E-06  3932   0.408E-03
  26 F= -.77773811E+03 E0= -.77773396E+03  d E =-.117768E-01  mag=     0.0000
       N       E                     dE             d eps       ncg     rms          rms(c)
DAV:   1    -0.777737027080E+03    0.10870E-02   -0.83447E-01  6584   0.188E+00    0.280E-01
RMM:   2    -0.777744716898E+03   -0.76898E-02   -0.69678E-02  7602   0.536E-01    0.270E-01
RMM:   3    -0.777744876867E+03   -0.15997E-03   -0.40889E-03  7626   0.859E-02    0.272E-01
RMM:   4    -0.777742593231E+03    0.22836E-02   -0.11259E-03  7129   0.386E-02    0.938E-02
RMM:   5    -0.777742512211E+03    0.81020E-04   -0.53931E-04  6840   0.267E-02    0.803E-02
RMM:   6    -0.777742442970E+03    0.69241E-04   -0.19060E-04  6101   0.154E-02    0.471E-02
RMM:   7    -0.777742405628E+03    0.37341E-04   -0.60429E-05  6016   0.101E-02    0.148E-02
RMM:   8    -0.777742405650E+03   -0.21289E-07   -0.10428E-05  3958   0.467E-03
  27 F= -.77774241E+03 E0= -.77773825E+03  d E =-.429260E-02  mag=     0.0000
