       N       E                     dE             d eps       ncg     rms          rms(c)
DAV:   1     0.178193058768E+05    0.17819E+05   -0.60521E+05  9664   0.139E+03
DAV:   2     0.222806125075E+04   -0.15591E+05   -0.14828E+05  9652   0.521E+02
DAV:   3     0.726214924897E+03   -0.15018E+04   -0.14442E+04 10876   0.176E+02
DAV:   4     0.531572835923E+03   -0.19464E+03   -0.19185E+03 15744   0.435E+01
DAV:   5     0.523727752666E+03   -0.78451E+01   -0.78281E+01 12840   0.918E+00    0.160E+03
RMM:   6    -0.642091525116E+04   -0.69446E+04   -0.91153E+03 13316   0.632E+01    0.131E+03
RMM:   7    -0.225770360355E+05   -0.16156E+05   -0.29560E+04 13796   0.167E+02    0.125E+03
RMM:   8    -0.946364153774E+04    0.13113E+05   -0.14303E+04 11865   0.950E+01    0.986E+02
RMM:   9    -0.783050558438E+04    0.16331E+04   -0.47058E+03 12726   0.537E+01    0.972E+02
RMM:  10    -0.612866264280E+04    0.17018E+04   -0.18155E+04 12822   0.121E+02    0.730E+02
RMM:  11    -0.448311312593E+03    0.56804E+04   -0.96094E+02 11519   0.267E+01    0.517E+02
RMM:  12     0.118636961644E+04    0.16347E+04   -0.29396E+02 10715   0.133E+01    0.470E+02
RMM:  13     0.119019274511E+04    0.38231E+01   -0.77035E+01 11039   0.551E+00    0.338E+02
RMM:  14     0.119181906127E+04    0.16263E+01   -0.45327E+00 12699   0.152E+00    0.328E+02
RMM:  15     0.104385929073E+04   -0.14796E+03   -0.26004E+01 10207   0.314E+00    0.230E+02
RMM:  16     0.103161926910E+04   -0.12240E+02   -0.34553E+00 10970   0.113E+00    0.228E+02
RMM:  17     0.119613133837E+04    0.16451E+03   -0.41988E+01 10071   0.450E+00    0.187E+02
RMM:  18     0.112892003177E+04   -0.67211E+02   -0.33380E+01  9346   0.611E+00    0.237E+02
RMM:  19     0.123664297478E+04    0.10772E+03   -0.56044E+01  9814   0.661E+00    0.288E+02
RMM:  20     0.124004514033E+04    0.34022E+01   -0.62088E+00 10603   0.213E+00    0.283E+02
RMM:  21     0.121389097816E+04   -0.26154E+02   -0.58754E+01  9734   0.654E+00    0.279E+02
RMM:  22     0.124443674044E+04    0.30546E+02   -0.75864E+00 10934   0.152E+00    0.283E+02
RMM:  23     0.125991280321E+04    0.15476E+02   -0.25200E+00  9682   0.135E+00    0.247E+02
RMM:  24     0.126008163287E+04    0.16883E+00   -0.86778E+00  9821   0.259E+00    0.219E+02
RMM:  25     0.125459999808E+04   -0.54816E+01   -0.40302E+00  9357   0.220E+00    0.163E+02
RMM:  26     0.123645609712E+04   -0.18144E+02   -0.14129E+01  9787   0.363E+00    0.111E+02
RMM:  27     0.122637023627E+04   -0.10086E+02   -0.11741E+01  9550   0.316E+00    0.951E+01
RMM:  28     0.120506305190E+04   -0.21307E+02   -0.18821E+01  9408   0.387E+00    0.504E+01
RMM:  29     0.120044511044E+04   -0.46179E+01   -0.15121E+01  9743   0.287E+00    0.498E+01
RMM:  30     0.119451850798E+04   -0.59266E+01   -0.52126E+00  9996   0.171E+00    0.589E+01
RMM:  31     0.118261532877E+04   -0.11903E+02   -0.34400E+00 10151   0.124E+00    0.352E+01
RMM:  32     0.117711053858E+04   -0.55048E+01   -0.65265E+00  9422   0.180E+00    0.244E+01
RMM:  33     0.117388966595E+04   -0.32209E+01   -0.61562E+00  9670   0.156E+00    0.292E+01
RMM:  34     0.116738237402E+04   -0.65073E+01   -0.57851E+00  9572   0.131E+00    0.278E+01
RMM:  35     0.116279876534E+04   -0.45836E+01   -0.46491E+00  9635   0.105E+00    0.237E+01
RMM:  36     0.115750227136E+04   -0.52965E+01   -0.62508E+00  9423   0.129E+00    0.155E+01
RMM:  37     0.115399838394E+04   -0.35039E+01   -0.60290E+00  9689   0.104E+00    0.525E+00
RMM:  38     0.115023183589E+04   -0.37665E+01   -0.47829E+00 10236   0.927E-01    0.927E+00
RMM:  39     0.115167472792E+04    0.14429E+01   -0.51022E-01 10801   0.297E-01    0.772E+00
RMM:  40     0.115119817112E+04   -0.47656E+00   -0.38803E-01  9815   0.314E-01    0.833E+00
RMM:  41     0.115059699047E+04   -0.60118E+00   -0.44327E-01 10412   0.320E-01    0.505E+00
RMM:  42     0.115047152336E+04   -0.12547E+00   -0.11948E-01 10057   0.194E-01    0.339E+00
RMM:  43     0.115027037169E+04   -0.20115E+00   -0.63309E-02 10182   0.163E-01    0.378E+00
RMM:  44     0.114988365793E+04   -0.38671E+00   -0.62559E-02  9975   0.149E-01    0.448E+00
RMM:  45     0.114911790398E+04   -0.76575E+00   -0.30001E-02 10133   0.137E-01    0.421E+00
RMM:  46     0.114842748500E+04   -0.69042E+00   -0.21257E-02  9839   0.993E-02    0.165E+00
RMM:  47     0.114817385244E+04   -0.25363E+00   -0.89033E-03 10510   0.554E-02    0.634E-01
RMM:  48     0.114804753278E+04   -0.12632E+00   -0.56776E-03  9653   0.501E-02    0.554E-01
RMM:  49     0.114799985177E+04   -0.47681E-01   -0.64832E-03  9993   0.430E-02    0.352E-01
RMM:  50     0.114798805720E+04   -0.11795E-01   -0.79391E-04  9673   0.203E-02    0.475E-01
RMM:  51     0.114797785461E+04   -0.10203E-01    0.40513E-03  9746   0.234E-02    0.357E-01
RMM:  52     0.114797124759E+04   -0.66070E-02    0.85706E-03  8639   0.120E-02    0.513E-01
RMM:  53     0.114796585960E+04   -0.53880E-02    0.25686E-03  6667   0.745E-03    0.471E-01
RMM:  54     0.114796185931E+04   -0.40003E-02    0.18420E-02  6817   0.554E-03    0.296E-01
RMM:  55     0.114795775199E+04   -0.41073E-02    0.26186E-03  7385   0.685E-03    0.114E-01
RMM:  56     0.114795437276E+04   -0.33792E-02    0.14414E-02  6591   0.481E-03    0.195E-02
RMM:  57     0.114795308603E+04   -0.12867E-02    0.16672E-03  5933   0.319E-03    0.186E-02
RMM:  58     0.114795126512E+04   -0.18209E-02    0.17938E-03  5967   0.342E-03    0.133E-02
RMM:  59     0.114795041005E+04   -0.85507E-03    0.14470E-03  5676   0.260E-03    0.959E-03
RMM:  60     0.114794997744E+04   -0.43261E-03    0.95311E-04  5415   0.237E-03
   1 F= 0.11479500E+04 E0= 0.11480121E+04  d E =0.114795E+04  mag=     0.0024
       N       E                     dE             d eps       ncg     rms          rms(c)
DAV:   1     0.188022704061E+04    0.73228E+03   -0.40029E+04 11556   0.388E+02    0.311E+02
RMM:   2    -0.607206475578E+04   -0.79523E+04   -0.32051E+04 14056   0.160E+02    0.354E+02
RMM:   3    -0.273539048131E+04    0.33367E+04   -0.73745E+03 10707   0.731E+01    0.387E+02
RMM:   4     0.543821946765E+03    0.32792E+04   -0.39522E+02 10365   0.191E+01    0.211E+02
RMM:   5     0.545001376732E+03    0.11794E+01   -0.12974E+02 10973   0.760E+00    0.201E+02
RMM:   6     0.328460990121E+03   -0.21654E+03   -0.71696E+02 10548   0.166E+01    0.127E+02
RMM:   7     0.499500328756E+03    0.17104E+03   -0.45032E+01 10674   0.447E+00    0.116E+02
RMM:   8     0.533062124900E+03    0.33562E+02   -0.98929E+01 10209   0.687E+00    0.707E+01
RMM:   9     0.704369866259E+03    0.17131E+03   -0.16998E+01 10745   0.276E+00    0.936E+01
RMM:  10     0.691848295487E+03   -0.12522E+02   -0.39498E+00 10421   0.182E+00    0.667E+01
RMM:  11     0.692575671274E+03    0.72738E+00   -0.25494E+00 10343   0.154E+00    0.473E+01
RMM:  12     0.707546037794E+03    0.14970E+02   -0.48988E+00 10199   0.178E+00    0.334E+01
RMM:  13     0.720510240761E+03    0.12964E+02   -0.15205E+00 10809   0.928E-01    0.269E+01
RMM:  14     0.738154164193E+03    0.17644E+02   -0.27167E+00  9908   0.112E+00    0.161E+01
RMM:  15     0.738834888269E+03    0.68072E+00   -0.79103E-01 10818   0.691E-01    0.150E+01
RMM:  16     0.741447807376E+03    0.26129E+01   -0.30817E-01 10707   0.410E-01    0.132E+01
RMM:  17     0.748919312959E+03    0.74715E+01   -0.91192E-01  9935   0.639E-01    0.962E+00
RMM:  18     0.748847264915E+03   -0.72048E-01   -0.11117E-01 10808   0.272E-01    0.816E+00
RMM:  19     0.749493565741E+03    0.64630E+00   -0.23387E-02 11059   0.101E-01    0.772E+00
RMM:  20     0.750486190529E+03    0.99262E+00   -0.55045E-02  9968   0.168E-01    0.628E+00
RMM:  21     0.752385459233E+03    0.18993E+01   -0.33522E-01  9802   0.374E-01    0.270E+00
RMM:  22     0.752481804136E+03    0.96345E-01   -0.42932E-02 10858   0.141E-01    0.246E+00
RMM:  23     0.752789109611E+03    0.30731E+00   -0.41144E-02 10025   0.133E-01    0.134E+00
RMM:  24     0.752819463552E+03    0.30354E-01   -0.27940E-02  9530   0.136E-01    0.179E+00
RMM:  25     0.752946944337E+03    0.12748E+00   -0.54538E-02 10176   0.150E-01    0.123E+00
RMM:  26     0.752944007337E+03   -0.29370E-02   -0.21949E-02  9722   0.123E-01    0.118E+00
RMM:  27     0.752939817940E+03   -0.41894E-02   -0.65023E-03 10060   0.693E-02    0.168E+00
RMM:  28     0.752994426609E+03    0.54609E-01   -0.10951E-02  9934   0.644E-02    0.877E-01
RMM:  29     0.752997848423E+03    0.34218E-02   -0.60080E-03 10212   0.450E-02    0.685E-01
RMM:  30     0.752996756273E+03   -0.10921E-02   -0.12077E-03 10171   0.237E-02    0.486E-01
RMM:  31     0.752993907963E+03   -0.28483E-02   -0.92331E-04  9354   0.226E-02    0.272E-01
RMM:  32     0.752989962453E+03   -0.39455E-02   -0.10013E-03  9337   0.204E-02    0.289E-01
RMM:  33     0.752989163285E+03   -0.79917E-03   -0.33811E-04  8893   0.132E-02    0.213E-01
RMM:  34     0.752988117091E+03   -0.10462E-02   -0.44059E-04  8551   0.167E-02    0.586E-02
RMM:  35     0.752987309753E+03   -0.80734E-03   -0.95079E-05  8062   0.804E-03    0.429E-02
RMM:  36     0.752986941867E+03   -0.36789E-03    0.18229E-05  7224   0.561E-03    0.691E-02
RMM:  37     0.752986914898E+03   -0.26969E-04    0.55250E-05  6619   0.472E-03    0.473E-02
RMM:  38     0.752986723633E+03   -0.19126E-03    0.89875E-05  5559   0.282E-03    0.232E-02
RMM:  39     0.752986302376E+03   -0.42126E-03    0.82430E-05  5880   0.298E-03    0.251E-02
RMM:  40     0.752986189826E+03   -0.11255E-03    0.13235E-04  4820   0.189E-03    0.179E-02
RMM:  41     0.752986067345E+03   -0.12248E-03    0.16576E-04  5752   0.263E-03    0.114E-02
RMM:  42     0.752986006033E+03   -0.61311E-04    0.22465E-04  4735   0.174E-03    0.194E-03
RMM:  43     0.752985983565E+03   -0.22469E-04    0.28933E-04  3981   0.137E-03    0.351E-03
RMM:  44     0.752985959269E+03   -0.24296E-04    0.36858E-04  4597   0.142E-03    0.201E-03
RMM:  45     0.752985949436E+03   -0.98327E-05    0.46887E-04  3494   0.117E-03    0.282E-03
RMM:  46     0.752985945923E+03   -0.35136E-05    0.59642E-04  3242   0.111E-03    0.184E-03
RMM:  47     0.752985948035E+03    0.21118E-05    0.76320E-04  2988   0.105E-03    0.581E-04
RMM:  48     0.752985929537E+03   -0.18498E-04    0.44239E-04  2867   0.101E-03    0.663E-04
RMM:  49     0.752985930492E+03    0.95507E-06    0.35505E-04  2648   0.976E-04    0.576E-04
RMM:  50     0.752985932872E+03    0.23800E-05    0.35782E-04  2563   0.942E-04    0.594E-04
RMM:  51     0.752985949357E+03    0.16485E-04    0.57253E-04  2547   0.949E-04    0.882E-04
RMM:  52     0.752985934900E+03   -0.14457E-04    0.79913E-04  2508   0.907E-04    0.592E-04
RMM:  53     0.752985949684E+03    0.14784E-04    0.51841E-04  2479   0.919E-04    0.667E-04
RMM:  54     0.752985942974E+03   -0.67104E-05    0.84292E-04  2467   0.905E-04    0.722E-04
RMM:  55     0.752985924015E+03   -0.18959E-04    0.28654E-04  2512   0.916E-04    0.457E-04
RMM:  56     0.752985923622E+03   -0.39348E-06    0.16643E-04  2503   0.923E-04    0.440E-04
RMM:  57     0.752985923602E+03   -0.19558E-07    0.14474E-04  2548   0.890E-04    0.325E-04
RMM:  58     0.752985925109E+03    0.15069E-05    0.21569E-04  2520   0.876E-04    0.271E-04
RMM:  59     0.752985924466E+03   -0.64261E-06    0.34872E-04  2406   0.866E-04    0.251E-04
RMM:  60     0.752985922580E+03   -0.18864E-05    0.27004E-04  2457   0.885E-04
   2 F= 0.75298592E+03 E0= 0.75301557E+03  d E =-.394964E+03  mag=     0.0005
       N       E                     dE             d eps       ncg     rms          rms(c)
DAV:   1     0.755292435754E+03    0.23065E+01   -0.29811E+02 11236   0.266E+01    0.907E+00
RMM:   2     0.746263260862E+03   -0.90292E+01   -0.38100E+01 10023   0.683E+00    0.114E+01
RMM:   3     0.740934992656E+03   -0.53283E+01   -0.38450E+00 10271   0.178E+00    0.169E+01
RMM:   4     0.750683360676E+03    0.97484E+01   -0.22469E+00 10229   0.108E+00    0.847E+00
RMM:   5     0.752362552447E+03    0.16792E+01   -0.98640E-01 10082   0.812E-01    0.221E+00
RMM:   6     0.752341763849E+03   -0.20789E-01   -0.27521E-01 10460   0.390E-01    0.190E+00
RMM:   7     0.752389625069E+03    0.47861E-01   -0.15605E-01 10130   0.306E-01    0.122E+00
RMM:   8     0.752415949242E+03    0.26324E-01   -0.22195E-02 10199   0.136E-01    0.601E-01
RMM:   9     0.752418121019E+03    0.21718E-02   -0.63313E-03 10226   0.690E-02    0.355E-01
RMM:  10     0.752419477500E+03    0.13565E-02   -0.27373E-03  9943   0.465E-02    0.150E-01
RMM:  11     0.752419406144E+03   -0.71356E-04   -0.13013E-03  9742   0.295E-02    0.165E-01
RMM:  12     0.752419572221E+03    0.16608E-03   -0.23144E-04  8920   0.143E-02    0.116E-01
RMM:  13     0.752419644720E+03    0.72499E-04   -0.71553E-05  8010   0.834E-03    0.743E-02
RMM:  14     0.752419653968E+03    0.92478E-05   -0.43437E-05  7771   0.695E-03
   3 F= 0.75241965E+03 E0= 0.75244804E+03  d E =-.395530E+03  mag=     0.0003
       N       E                     dE             d eps       ncg     rms          rms(c)
DAV:   1     0.697531663550E+03   -0.54888E+02   -0.79750E+03 10714   0.147E+02    0.103E+02
RMM:   2    -0.121953999549E+03   -0.81949E+03   -0.24528E+03 10320   0.515E+01    0.176E+02
RMM:   3    -0.829880903918E+03   -0.70793E+03   -0.95298E+02 10626   0.201E+01    0.226E+02
RMM:   4     0.548973087766E+03    0.13789E+04   -0.81475E+01 10342   0.821E+00    0.748E+01
RMM:   5     0.582599444253E+03    0.33626E+02   -0.37992E+01 10240   0.406E+00    0.500E+01
RMM:   6     0.553215410501E+03   -0.29384E+02   -0.24891E+01 10156   0.393E+00    0.488E+01
RMM:   7     0.560868056022E+03    0.76526E+01   -0.26223E+01 10141   0.379E+00    0.395E+01
RMM:   8     0.590031912606E+03    0.29164E+02   -0.77633E+00  9971   0.214E+00    0.295E+01
RMM:   9     0.590442494554E+03    0.41058E+00   -0.45760E-01 10939   0.505E-01    0.283E+01
RMM:  10     0.590911227911E+03    0.46873E+00   -0.23780E-01 10141   0.434E-01    0.221E+01
RMM:  11     0.591014814432E+03    0.10359E+00   -0.55046E-02  9999   0.253E-01    0.179E+01
RMM:  12     0.591253527868E+03    0.23871E+00   -0.80170E-02  9921   0.296E-01    0.109E+01
RMM:  13     0.591327973710E+03    0.74446E-01   -0.44939E-02 10492   0.190E-01    0.830E+00
RMM:  14     0.591371667514E+03    0.43694E-01   -0.21724E-02 10160   0.136E-01    0.670E+00
RMM:  15     0.591428881478E+03    0.57214E-01   -0.25302E-02 10016   0.151E-01    0.423E+00
RMM:  16     0.591469089524E+03    0.40208E-01   -0.20421E-02 10038   0.125E-01    0.208E+00
RMM:  17     0.591487900673E+03    0.18811E-01   -0.74116E-03 10691   0.663E-02    0.124E+00
RMM:  18     0.591498231717E+03    0.10331E-01   -0.32894E-03 10568   0.360E-02    0.911E-01
RMM:  19     0.591508990234E+03    0.10759E-01   -0.71076E-03  9651   0.541E-02    0.322E-01
RMM:  20     0.591508376545E+03   -0.61369E-03   -0.22884E-03 10561   0.271E-02    0.360E-01
RMM:  21     0.591509737318E+03    0.13608E-02   -0.23319E-03  9827   0.278E-02    0.756E-02
RMM:  22     0.591509373411E+03   -0.36391E-03   -0.37966E-04  9144   0.112E-02    0.837E-02
RMM:  23     0.591508593904E+03   -0.77951E-03   -0.11755E-04  7384   0.703E-03    0.105E-01
RMM:  24     0.591507144258E+03   -0.14496E-02   -0.15447E-04  6807   0.594E-03    0.580E-02
RMM:  25     0.591506696178E+03   -0.44808E-03   -0.49286E-05  6913   0.469E-03    0.704E-02
RMM:  26     0.591506382871E+03   -0.31331E-03   -0.22854E-05  6082   0.350E-03    0.572E-02
RMM:  27     0.591506221683E+03   -0.16119E-03   -0.24468E-05  6007   0.378E-03    0.612E-03
RMM:  28     0.591506114385E+03   -0.10730E-03    0.68881E-06  5373   0.227E-03    0.595E-03
RMM:  29     0.591505937642E+03   -0.17674E-03    0.75639E-06  5237   0.203E-03    0.116E-02
RMM:  30     0.591505764849E+03   -0.17279E-03    0.84329E-07  5243   0.200E-03    0.750E-03
RMM:  31     0.591505650260E+03   -0.11459E-03    0.98412E-06  4226   0.159E-03    0.609E-03
RMM:  32     0.591505525857E+03   -0.12440E-03    0.12803E-05  4081   0.146E-03    0.460E-03
RMM:  33     0.591505466807E+03   -0.59050E-04    0.16934E-05  3775   0.128E-03    0.230E-03
RMM:  34     0.591505401419E+03   -0.65388E-04    0.18111E-05  4403   0.139E-03    0.287E-03
RMM:  35     0.591505373189E+03   -0.28230E-04    0.20110E-05  3451   0.118E-03    0.332E-03
RMM:  36     0.591505350327E+03   -0.22863E-04    0.21741E-05  3388   0.116E-03    0.258E-03
RMM:  37     0.591505335236E+03   -0.15091E-04    0.23662E-05  3273   0.113E-03    0.146E-03
RMM:  38     0.591505317405E+03   -0.17831E-04    0.25518E-05  3700   0.118E-03    0.638E-04
RMM:  39     0.591505311457E+03   -0.59477E-05    0.28096E-05  3010   0.107E-03
   4 F= 0.59150531E+03 E0= 0.59150792E+03  d E =-.160914E+03  mag=    -0.0002
       N       E                     dE             d eps       ncg     rms          rms(c)
DAV:   1     0.603161086389E+03    0.11656E+02   -0.30190E+03 10452   0.835E+01    0.499E+01
RMM:   2     0.503964747414E+03   -0.99196E+02   -0.47040E+02 10059   0.244E+01    0.417E+01
RMM:   3     0.184680826710E+03   -0.31928E+03   -0.10753E+02 10586   0.797E+00    0.106E+02
RMM:   4     0.563187270891E+03    0.37851E+03   -0.32659E+01 10109   0.460E+00    0.262E+01
RMM:   5     0.568892555919E+03    0.57053E+01   -0.17881E+01 10190   0.307E+00    0.132E+01
RMM:   6     0.569990282767E+03    0.10977E+01   -0.57193E+00 10075   0.199E+00    0.106E+01
RMM:   7     0.571630550186E+03    0.16403E+01   -0.31612E+00 10486   0.126E+00    0.808E+00
RMM:   8     0.573207479121E+03    0.15769E+01   -0.91237E-01 10022   0.713E-01    0.584E+00
RMM:   9     0.573254710790E+03    0.47232E-01   -0.17948E-01 10209   0.352E-01    0.501E+00
RMM:  10     0.573296030940E+03    0.41320E-01   -0.64414E-02 10198   0.219E-01    0.356E+00
RMM:  11     0.573318940754E+03    0.22910E-01   -0.30972E-02 10097   0.168E-01    0.195E+00
RMM:  12     0.573321644224E+03    0.27035E-02   -0.83768E-03 10861   0.799E-02    0.152E+00
RMM:  13     0.573323173205E+03    0.15290E-02   -0.53619E-03 10152   0.607E-02    0.107E+00
RMM:  14     0.573325514522E+03    0.23413E-02   -0.24946E-03 10259   0.441E-02    0.731E-01
RMM:  15     0.573326202245E+03    0.68772E-03   -0.37168E-04  9655   0.175E-02    0.541E-01
RMM:  16     0.573326674483E+03    0.47224E-03   -0.30357E-04  9400   0.156E-02    0.385E-01
RMM:  17     0.573327078749E+03    0.40427E-03   -0.29326E-04  9084   0.148E-02    0.179E-01
RMM:  18     0.573327210859E+03    0.13211E-03   -0.19043E-04  8814   0.115E-02    0.532E-02
RMM:  19     0.573327161292E+03   -0.49567E-04   -0.73863E-05  7965   0.700E-03    0.149E-02
RMM:  20     0.573327080282E+03   -0.81010E-04   -0.23861E-05  6589   0.445E-03    0.125E-02
RMM:  21     0.573326989624E+03   -0.90658E-04   -0.80882E-06  5494   0.296E-03    0.160E-02
RMM:  22     0.573326881592E+03   -0.10803E-03   -0.47135E-06  5369   0.238E-03    0.569E-03
RMM:  23     0.573326764401E+03   -0.11719E-03   -0.53833E-06  5373   0.227E-03    0.349E-03
RMM:  24     0.573326679379E+03   -0.85022E-04   -0.45619E-06  5194   0.209E-03    0.173E-03
RMM:  25     0.573326646618E+03   -0.32761E-04   -0.10042E-06  4601   0.160E-03    0.191E-03
RMM:  26     0.573326620341E+03   -0.26277E-04   -0.83852E-08  4658   0.153E-03    0.960E-04
RMM:  27     0.573326602901E+03   -0.17440E-04    0.40800E-07  4208   0.138E-03    0.939E-04
RMM:  28     0.573326595688E+03   -0.72131E-05    0.94134E-07  3893   0.125E-03
   5 F= 0.57332660E+03 E0= 0.57334798E+03  d E =-.179093E+03  mag=    -0.0001
       N       E                     dE             d eps       ncg     rms          rms(c)
DAV:   1     0.575559580536E+03    0.22330E+01   -0.13403E+03 11246   0.576E+01    0.204E+01
RMM:   2     0.517467379355E+03   -0.58092E+02   -0.27998E+02 10191   0.182E+01    0.300E+01
RMM:   3     0.528322673315E+03    0.10855E+02   -0.17297E+01 10157   0.420E+00    0.298E+01
RMM:   4     0.551601851519E+03    0.23279E+02   -0.30464E+00 10362   0.169E+00    0.150E+01
RMM:   5     0.546848456360E+03   -0.47534E+01   -0.49991E+00 10112   0.173E+00    0.148E+01
RMM:   6     0.550783766543E+03    0.39353E+01   -0.76794E+00 10126   0.190E+00    0.720E+00
RMM:   7     0.553013000098E+03    0.22292E+01   -0.21451E+00 10066   0.113E+00    0.342E+00
RMM:   8     0.553392333721E+03    0.37933E+00   -0.51442E-01 10239   0.589E-01    0.202E+00
RMM:   9     0.553428761398E+03    0.36428E-01   -0.46193E-02 10133   0.199E-01    0.128E+00
RMM:  10     0.553431716226E+03    0.29548E-02   -0.32457E-02 10085   0.152E-01    0.956E-01
RMM:  11     0.553441440256E+03    0.97240E-02   -0.22026E-02 10159   0.122E-01    0.437E-01
RMM:  12     0.553444731358E+03    0.32911E-02   -0.62366E-03 10190   0.688E-02    0.203E-01
RMM:  13     0.553445059029E+03    0.32767E-03   -0.17594E-03 10204   0.371E-02    0.107E-01
RMM:  14     0.553445189066E+03    0.13004E-03   -0.40469E-04  9590   0.185E-02    0.690E-02
RMM:  15     0.553445175499E+03   -0.13567E-04   -0.55056E-05  8269   0.812E-03    0.409E-02
RMM:  16     0.553445116462E+03   -0.59037E-04   -0.37544E-05  7790   0.616E-03    0.203E-02
RMM:  17     0.553445068562E+03   -0.47900E-04   -0.13278E-05  6414   0.441E-03    0.147E-02
RMM:  18     0.553444995658E+03   -0.72904E-04   -0.50624E-06  5542   0.333E-03    0.559E-03
RMM:  19     0.553444936783E+03   -0.58875E-04   -0.87492E-07  5174   0.236E-03    0.336E-03
RMM:  20     0.553444857116E+03   -0.79667E-04   -0.20826E-06  5239   0.208E-03    0.234E-03
RMM:  21     0.553444799816E+03   -0.57301E-04   -0.10252E-06  4594   0.177E-03    0.236E-03
RMM:  22     0.553444768822E+03   -0.30993E-04    0.95142E-07  4165   0.154E-03    0.195E-03
RMM:  23     0.553444746017E+03   -0.22806E-04    0.16100E-06  4042   0.143E-03    0.936E-04
RMM:  24     0.553444734638E+03   -0.11378E-04    0.24997E-06  3918   0.134E-03    0.431E-04
RMM:  25     0.553444730509E+03   -0.41295E-05    0.33576E-06  3521   0.122E-03
   6 F= 0.55344473E+03 E0= 0.55347272E+03  d E =-.198819E+02  mag=    -0.0000
       N       E                     dE             d eps       ncg     rms          rms(c)
DAV:   1     0.581388579723E+03    0.27944E+02   -0.19722E+03 11212   0.707E+01    0.231E+01
RMM:   2     0.473271714467E+03   -0.10812E+03   -0.46749E+02 10194   0.230E+01    0.475E+01
RMM:   3     0.531192532357E+03    0.57921E+02   -0.24591E+01 10062   0.511E+00    0.259E+01
RMM:   4     0.545025598935E+03    0.13833E+02   -0.41582E+00 10389   0.199E+00    0.157E+01
RMM:   5     0.540783119713E+03   -0.42425E+01   -0.53162E+00 10012   0.192E+00    0.138E+01
RMM:   6     0.538474194946E+03   -0.23089E+01   -0.98137E+00 10198   0.212E+00    0.112E+01
RMM:   7     0.545705905845E+03    0.72317E+01   -0.36787E+00 10052   0.148E+00    0.392E+00
RMM:   8     0.546101572430E+03    0.39567E+00   -0.70209E-01 10436   0.654E-01    0.202E+00
RMM:   9     0.546166701690E+03    0.65129E-01   -0.15283E-01 10274   0.327E-01    0.130E+00
RMM:  10     0.546173211937E+03    0.65102E-02   -0.27193E-02 10196   0.145E-01    0.959E-01
RMM:  11     0.546180426007E+03    0.72141E-02   -0.16811E-02 10217   0.103E-01    0.571E-01
RMM:  12     0.546183520943E+03    0.30949E-02   -0.65477E-03 10295   0.660E-02    0.338E-01
RMM:  13     0.546184043573E+03    0.52263E-03   -0.24391E-03  9904   0.402E-02    0.199E-01
RMM:  14     0.546184269778E+03    0.22620E-03   -0.59341E-04  9637   0.225E-02    0.124E-01
RMM:  15     0.546184212934E+03   -0.56845E-04   -0.18262E-04  8849   0.137E-02    0.766E-02
RMM:  16     0.546184168552E+03   -0.44382E-04   -0.68686E-05  8470   0.833E-03    0.494E-02
RMM:  17     0.546184049629E+03   -0.11892E-03   -0.22032E-05  7943   0.624E-03    0.251E-02
RMM:  18     0.546183949297E+03   -0.10033E-03    0.96050E-06  6035   0.399E-03    0.110E-02
RMM:  19     0.546183840396E+03   -0.10890E-03    0.17888E-05  5502   0.300E-03    0.462E-03
RMM:  20     0.546183774220E+03   -0.66177E-04    0.22674E-05  5225   0.226E-03    0.286E-03
RMM:  21     0.546183689252E+03   -0.84968E-04    0.23232E-05  5301   0.197E-03    0.338E-03
RMM:  22     0.546183615258E+03   -0.73994E-04    0.25538E-05  4981   0.174E-03    0.412E-03
RMM:  23     0.546183580684E+03   -0.34574E-04    0.29637E-05  4533   0.146E-03    0.140E-03
RMM:  24     0.546183564766E+03   -0.15918E-04    0.32641E-05  4050   0.125E-03    0.757E-04
RMM:  25     0.546183555179E+03   -0.95873E-05    0.35275E-05  3958   0.118E-03
   7 F= 0.54618356E+03 E0= 0.54619844E+03  d E =-.271430E+02  mag=     0.0000
       N       E                     dE             d eps       ncg     rms          rms(c)
DAV:   1     0.540457000527E+03   -0.57266E+01   -0.36022E+02 11088   0.287E+01    0.881E+00
RMM:   2     0.531678048827E+03   -0.87790E+01   -0.58912E+01 10152   0.863E+00    0.965E+00
RMM:   3     0.528139206385E+03   -0.35388E+01   -0.36800E+00 10688   0.184E+00    0.161E+01
RMM:   4     0.534976913454E+03    0.68377E+01   -0.70106E-01 10070   0.716E-01    0.562E+00
RMM:   5     0.533655656586E+03   -0.13213E+01   -0.14551E+00 10097   0.854E-01    0.641E+00
RMM:   6     0.535006593725E+03    0.13509E+01   -0.79544E-01 10133   0.707E-01    0.282E+00
RMM:   7     0.535188143378E+03    0.18155E+00   -0.35160E-01 10088   0.475E-01    0.139E+00
RMM:   8     0.535225537983E+03    0.37395E-01   -0.69476E-02 10256   0.221E-01    0.866E-01
RMM:   9     0.535240253621E+03    0.14716E-01   -0.18166E-02 10191   0.119E-01    0.464E-01
RMM:  10     0.535243329837E+03    0.30762E-02   -0.71521E-03 10084   0.707E-02    0.214E-01
RMM:  11     0.535244491393E+03    0.11616E-02   -0.26414E-03 10326   0.412E-02    0.120E-01
RMM:  12     0.535244813224E+03    0.32183E-03   -0.56577E-04  9296   0.203E-02    0.599E-02
RMM:  13     0.535244767015E+03   -0.46209E-04   -0.62781E-05  8210   0.820E-03    0.397E-02
RMM:  14     0.535244722092E+03   -0.44923E-04   -0.19501E-05  7224   0.559E-03    0.163E-02
RMM:  15     0.535244677413E+03   -0.44679E-04   -0.10795E-05  6444   0.432E-03    0.768E-03
RMM:  16     0.535244661021E+03   -0.16392E-04    0.15827E-06  5199   0.269E-03    0.362E-03
RMM:  17     0.535244611138E+03   -0.49882E-04    0.29412E-06  4937   0.207E-03    0.272E-03
RMM:  18     0.535244548805E+03   -0.62333E-04    0.22073E-06  5120   0.192E-03    0.251E-03
RMM:  19     0.535244514320E+03   -0.34485E-04    0.42222E-06  4604   0.163E-03    0.220E-03
RMM:  20     0.535244474488E+03   -0.39832E-04    0.35750E-06  4801   0.161E-03    0.979E-04
RMM:  21     0.535244457322E+03   -0.17166E-04    0.56687E-06  4177   0.138E-03    0.627E-04
RMM:  22     0.535244448044E+03   -0.92785E-05    0.67810E-06  3868   0.124E-03
   8 F= 0.53524445E+03 E0= 0.53526492E+03  d E =-.109391E+02  mag=     0.0000
       N       E                     dE             d eps       ncg     rms          rms(c)
DAV:   1     0.577530882790E+03    0.42286E+02   -0.32858E+03 11092   0.939E+01    0.313E+01
RMM:   2     0.323533808282E+03   -0.25400E+03   -0.10058E+03 10234   0.328E+01    0.623E+01
RMM:   3     0.438164475733E+03    0.11463E+03   -0.58335E+01 10114   0.778E+00    0.460E+01
RMM:   4     0.506140853774E+03    0.67976E+02   -0.10148E+01 10199   0.313E+00    0.189E+01
RMM:   5     0.506511868046E+03    0.37101E+00   -0.29699E+00 10148   0.144E+00    0.169E+01
RMM:   6     0.503725688768E+03   -0.27862E+01   -0.48552E+00 10173   0.150E+00    0.148E+01
RMM:   7     0.507216046845E+03    0.34904E+01   -0.41068E+00 10085   0.165E+00    0.959E+00
RMM:   8     0.508490112580E+03    0.12741E+01   -0.15490E+00 10115   0.101E+00    0.572E+00
RMM:   9     0.508587368296E+03    0.97256E-01   -0.30007E-01 10156   0.476E-01    0.472E+00
RMM:  10     0.508706204111E+03    0.11884E+00   -0.13980E-01 10168   0.317E-01    0.265E+00
RMM:  11     0.508732470245E+03    0.26266E-01   -0.58103E-02 10631   0.187E-01    0.194E+00
RMM:  12     0.508733793872E+03    0.13236E-02   -0.10973E-02 10547   0.897E-02    0.132E+00
RMM:  13     0.508737651224E+03    0.38574E-02   -0.12822E-02 10451   0.859E-02    0.105E+00
RMM:  14     0.508741149657E+03    0.34984E-02   -0.32682E-03 10334   0.482E-02    0.687E-01
RMM:  15     0.508742828198E+03    0.16785E-02   -0.19578E-03 10238   0.387E-02    0.376E-01
RMM:  16     0.508743193662E+03    0.36546E-03   -0.54696E-04 10405   0.202E-02    0.242E-01
RMM:  17     0.508743216374E+03    0.22712E-04   -0.26352E-04  9643   0.142E-02    0.156E-01
RMM:  18     0.508743158135E+03   -0.58239E-04   -0.15604E-04  8912   0.110E-02    0.591E-02
RMM:  19     0.508743009717E+03   -0.14842E-03   -0.33502E-05  7907   0.587E-03    0.372E-02
RMM:  20     0.508742849625E+03   -0.16009E-03   -0.18012E-05  6537   0.487E-03    0.645E-03
RMM:  21     0.508742763242E+03   -0.86383E-04   -0.19735E-06  5478   0.336E-03    0.129E-02
RMM:  22     0.508742705409E+03   -0.57833E-04    0.40247E-06  5230   0.228E-03    0.424E-03
RMM:  23     0.508742597375E+03   -0.10803E-03    0.19465E-06  5182   0.200E-03    0.942E-03
RMM:  24     0.508742507049E+03   -0.90326E-04    0.19444E-06  5220   0.184E-03    0.402E-03
RMM:  25     0.508742481951E+03   -0.25098E-04    0.62432E-06  4359   0.144E-03    0.222E-03
RMM:  26     0.508742472128E+03   -0.98222E-05    0.86940E-06  3939   0.124E-03
   9 F= 0.50874247E+03 E0= 0.50876329E+03  d E =-.374411E+02  mag=     0.0000
       N       E                     dE             d eps       ncg     rms          rms(c)
DAV:   1     0.868156398792E+03    0.35941E+03   -0.11411E+04 11564   0.196E+02    0.621E+01
RMM:   2    -0.619038298031E+03   -0.14872E+04   -0.70760E+03 11371   0.776E+01    0.196E+02
RMM:   3     0.381615917038E+03    0.10007E+04   -0.38843E+02 10644   0.185E+01    0.678E+01
RMM:   4     0.452220397385E+03    0.70604E+02   -0.11000E+02 10371   0.837E+00    0.457E+01
RMM:   5     0.496689238219E+03    0.44469E+02   -0.21065E+01 10447   0.347E+00    0.326E+01
RMM:   6     0.478996984416E+03   -0.17692E+02   -0.13972E+01 10230   0.267E+00    0.340E+01
RMM:   7     0.473680759538E+03   -0.53162E+01   -0.19349E+01 10073   0.322E+00    0.273E+01
RMM:   8     0.498590189402E+03    0.24909E+02   -0.83514E+00 10203   0.188E+00    0.194E+01
RMM:   9     0.496762051148E+03   -0.18281E+01   -0.90014E+00 10107   0.150E+00    0.161E+01
RMM:  10     0.497423830419E+03    0.66178E+00   -0.27944E+00 10252   0.622E-01    0.136E+01
RMM:  11     0.497954811762E+03    0.53098E+00   -0.94094E-01 10102   0.535E-01    0.110E+01
RMM:  12     0.498465234479E+03    0.51042E+00   -0.24347E-01 10274   0.350E-01    0.768E+00
RMM:  13     0.498730128718E+03    0.26489E+00   -0.97914E-02 10515   0.216E-01    0.658E+00
RMM:  14     0.498774154440E+03    0.44026E-01   -0.11256E-02 11985   0.601E-02    0.635E+00
RMM:  15     0.498980897850E+03    0.20674E+00   -0.42213E-02  9904   0.148E-01    0.472E+00
RMM:  16     0.499106280096E+03    0.12538E+00   -0.12299E-02 10150   0.833E-02    0.368E+00
RMM:  17     0.499180947141E+03    0.74667E-01   -0.81412E-03 10066   0.668E-02    0.298E+00
RMM:  18     0.499270922313E+03    0.89975E-01   -0.11931E-02  9887   0.792E-02    0.193E+00
RMM:  19     0.499310449837E+03    0.39528E-01   -0.58179E-03 10453   0.492E-02    0.139E+00
RMM:  20     0.499334948902E+03    0.24499E-01   -0.36733E-03 10252   0.405E-02    0.104E+00
RMM:  21     0.499365611116E+03    0.30662E-01   -0.99855E-03  9776   0.619E-02    0.324E-01
RMM:  22     0.499370599656E+03    0.49885E-02   -0.45947E-03 10162   0.400E-02    0.116E-01
RMM:  23     0.499369754301E+03   -0.84535E-03   -0.50756E-04  8977   0.162E-02    0.599E-02
RMM:  24     0.499369114174E+03   -0.64013E-03   -0.24428E-04  8207   0.964E-03    0.464E-02
RMM:  25     0.499368454599E+03   -0.65958E-03   -0.71080E-05  7506   0.604E-03    0.302E-02
RMM:  26     0.499367518452E+03   -0.93615E-03   -0.66794E-05  7486   0.684E-03    0.752E-02
RMM:  27     0.499367390553E+03   -0.12790E-03   -0.86763E-05  7351   0.562E-03    0.370E-02
RMM:  28     0.499366974664E+03   -0.41589E-03    0.50675E-06  6434   0.363E-03    0.824E-03
RMM:  29     0.499366630208E+03   -0.34446E-03    0.17382E-05  5558   0.287E-03    0.113E-02
RMM:  30     0.499366335399E+03   -0.29481E-03    0.12453E-05  5657   0.266E-03    0.155E-02
RMM:  31     0.499366168259E+03   -0.16714E-03    0.31360E-05  5266   0.211E-03    0.108E-02
RMM:  32     0.499366064920E+03   -0.10334E-03    0.49986E-05  4903   0.175E-03    0.620E-03
RMM:  33     0.499365993252E+03   -0.71668E-04    0.65537E-05  4449   0.149E-03    0.266E-03
RMM:  34     0.499365934550E+03   -0.58702E-04    0.82785E-05  3971   0.131E-03    0.199E-03
RMM:  35     0.499365857514E+03   -0.77037E-04    0.10306E-04  4188   0.133E-03    0.426E-03
RMM:  36     0.499365815448E+03   -0.42066E-04    0.13238E-04  3548   0.119E-03    0.380E-03
RMM:  37     0.499365781333E+03   -0.34114E-04    0.17241E-04  3633   0.119E-03    0.189E-03
RMM:  38     0.499365758292E+03   -0.23041E-04    0.22943E-04  3923   0.122E-03    0.161E-03
RMM:  39     0.499365749231E+03   -0.90611E-05    0.31406E-04  3234   0.110E-03    0.242E-03
RMM:  40     0.499365746893E+03   -0.23383E-05    0.44153E-04  3070   0.104E-03    0.196E-03
RMM:  41     0.499365748301E+03    0.14082E-05    0.64040E-04  3007   0.101E-03    0.117E-03
RMM:  42     0.499365730030E+03   -0.18271E-04    0.39377E-04  2943   0.985E-04    0.759E-04
RMM:  43     0.499365731841E+03    0.18105E-05    0.33832E-04  2725   0.954E-04    0.694E-04
RMM:  44     0.499365735748E+03    0.39074E-05    0.48836E-04  2767   0.937E-04    0.553E-04
RMM:  45     0.499365717968E+03   -0.17780E-04    0.19684E-04  2862   0.936E-04    0.445E-04
RMM:  46     0.499365717874E+03   -0.93598E-07    0.58076E-05  2668   0.905E-04
  10 F= 0.49936572E+03 E0= 0.49937038E+03  d E =-.468178E+02  mag=    -0.0001
       N       E                     dE             d eps       ncg     rms          rms(c)
DAV:   1     0.529342602324E+03    0.29977E+02   -0.20863E+03 11100   0.713E+01    0.167E+01
RMM:   2     0.491696000354E+03   -0.37647E+02   -0.38923E+02 10084   0.209E+01    0.237E+01
RMM:   3     0.490255675794E+03   -0.14403E+01   -0.18373E+01 10736   0.412E+00    0.214E+01
RMM:   4     0.490471177879E+03    0.21550E+00   -0.27245E+00 10618   0.147E+00    0.203E+01
RMM:   5     0.493626815571E+03    0.31556E+01   -0.25723E+00 10066   0.126E+00    0.112E+01
RMM:   6     0.493651465508E+03    0.24650E-01   -0.31069E+00 10019   0.148E+00    0.531E+00
RMM:   7     0.494360411952E+03    0.70895E+00   -0.74557E-01 10296   0.690E-01    0.309E+00
RMM:   8     0.494520221440E+03    0.15981E+00   -0.32011E-01 10104   0.404E-01    0.256E+00
RMM:   9     0.494623031491E+03    0.10281E+00   -0.81634E-02 10249   0.236E-01    0.171E+00
RMM:  10     0.494647715553E+03    0.24684E-01   -0.45442E-02 10258   0.173E-01    0.891E-01
RMM:  11     0.494661958235E+03    0.14243E-01   -0.90638E-03 10311   0.802E-02    0.558E-01
RMM:  12     0.494665173480E+03    0.32152E-02   -0.36190E-03 10264   0.550E-02    0.328E-01
RMM:  13     0.494665948486E+03    0.77501E-03   -0.13948E-03 10207   0.339E-02    0.203E-01
RMM:  14     0.494666246117E+03    0.29763E-03   -0.11148E-03 10165   0.319E-02    0.675E-02
RMM:  15     0.494666127405E+03   -0.11871E-03   -0.26796E-04  9683   0.153E-02    0.412E-02
RMM:  16     0.494666018708E+03   -0.10870E-03   -0.40757E-05  8070   0.719E-03    0.238E-02
RMM:  17     0.494665974237E+03   -0.44471E-04   -0.30157E-06  6481   0.469E-03    0.100E-02
RMM:  18     0.494665873488E+03   -0.10075E-03    0.42415E-06  5608   0.322E-03    0.750E-03
RMM:  19     0.494665751699E+03   -0.12179E-03   -0.96820E-07  5668   0.280E-03    0.405E-03
RMM:  20     0.494665665382E+03   -0.86318E-04    0.40611E-06  5052   0.233E-03    0.405E-03
RMM:  21     0.494665601630E+03   -0.63752E-04    0.10310E-05  4722   0.199E-03    0.299E-03
RMM:  22     0.494665539667E+03   -0.61962E-04    0.11019E-05  5034   0.191E-03    0.184E-03
RMM:  23     0.494665501207E+03   -0.38460E-04    0.15279E-05  4472   0.167E-03    0.160E-03
RMM:  24     0.494665492783E+03   -0.84245E-05    0.22927E-05  3950   0.134E-03
  11 F= 0.49466549E+03 E0= 0.49466476E+03  d E =-.515181E+02  mag=    -0.0001
       N       E                     dE             d eps       ncg     rms          rms(c)
DAV:   1     0.498536061819E+03    0.38706E+01   -0.14484E+03 11170   0.586E+01    0.215E+01
RMM:   2     0.423993963746E+03   -0.74542E+02   -0.35113E+02 10205   0.194E+01    0.321E+01
RMM:   3     0.442282926418E+03    0.18289E+02   -0.20699E+01 10099   0.447E+00    0.323E+01
RMM:   4     0.467097263468E+03    0.24814E+02   -0.36218E+00 10296   0.182E+00    0.167E+01
RMM:   5     0.463000535890E+03   -0.40967E+01   -0.53160E+00 10107   0.174E+00    0.155E+01
RMM:   6     0.466411346185E+03    0.34108E+01   -0.79114E+00 10070   0.195E+00    0.967E+00
RMM:   7     0.469829214858E+03    0.34179E+01   -0.29510E+00 10158   0.132E+00    0.629E+00
RMM:   8     0.470429560210E+03    0.60035E+00   -0.64739E-01 10025   0.672E-01    0.256E+00
RMM:   9     0.470494880440E+03    0.65320E-01   -0.11035E-01 10230   0.283E-01    0.170E+00
RMM:  10     0.470501884835E+03    0.70044E-02   -0.57782E-02  9903   0.209E-01    0.989E-01
RMM:  11     0.470516475819E+03    0.14591E-01   -0.30255E-02 10098   0.147E-01    0.457E-01
RMM:  12     0.470517902920E+03    0.14271E-02   -0.40432E-03 10677   0.535E-02    0.272E-01
RMM:  13     0.470518457053E+03    0.55413E-03   -0.16040E-03 10302   0.346E-02    0.174E-01
RMM:  14     0.470518706661E+03    0.24961E-03   -0.67272E-04  9652   0.216E-02    0.100E-01
RMM:  15     0.470518740652E+03    0.33990E-04   -0.19926E-04  8934   0.123E-02    0.630E-02
RMM:  16     0.470518708401E+03   -0.32251E-04   -0.30677E-05  7594   0.555E-03    0.455E-02
RMM:  17     0.470518574925E+03   -0.13348E-03   -0.34705E-05  7644   0.572E-03    0.226E-02
RMM:  18     0.470518504449E+03   -0.70476E-04   -0.11721E-05  6337   0.412E-03    0.124E-02
RMM:  19     0.470518426971E+03   -0.77478E-04   -0.74296E-07  5427   0.290E-03    0.594E-03
RMM:  20     0.470518332368E+03   -0.94604E-04   -0.14599E-06  5500   0.246E-03    0.447E-03
RMM:  21     0.470518243456E+03   -0.88912E-04   -0.46579E-07  5273   0.210E-03    0.474E-03
RMM:  22     0.470518179154E+03   -0.64302E-04    0.10437E-06  4825   0.179E-03    0.333E-03
RMM:  23     0.470518150853E+03   -0.28301E-04    0.46864E-06  4179   0.146E-03    0.203E-03
RMM:  24     0.470518123177E+03   -0.27676E-04    0.47620E-06  4032   0.134E-03    0.133E-03
RMM:  25     0.470518108784E+03   -0.14393E-04    0.57990E-06  3784   0.122E-03    0.615E-04
RMM:  26     0.470518101475E+03   -0.73088E-05    0.66342E-06  3391   0.109E-03
  12 F= 0.47051810E+03 E0= 0.47052315E+03  d E =-.241474E+02  mag=    -0.0001
       N       E                     dE             d eps       ncg     rms          rms(c)
DAV:   1     0.770071443241E+03    0.29955E+03   -0.11773E+04 11336   0.185E+02    0.625E+01
RMM:   2    -0.139942211045E+04   -0.21695E+04   -0.86180E+03 12050   0.814E+01    0.224E+02
RMM:   3     0.227968345192E+03    0.16274E+04   -0.38818E+02 10329   0.190E+01    0.799E+01
RMM:   4     0.393499873546E+03    0.16553E+03   -0.88184E+01 10320   0.798E+00    0.436E+01
RMM:   5     0.404126214321E+03    0.10626E+02   -0.11264E+01 10453   0.280E+00    0.416E+01
RMM:   6     0.402096885709E+03   -0.20293E+01   -0.82879E+00 10061   0.238E+00    0.400E+01
RMM:   7     0.407368711856E+03    0.52718E+01   -0.62938E+00 10085   0.215E+00    0.331E+01
RMM:   8     0.407132998476E+03   -0.23571E+00   -0.46220E+00 10094   0.185E+00    0.274E+01
RMM:   9     0.410828531417E+03    0.36955E+01   -0.27294E+00 10034   0.130E+00    0.221E+01
RMM:  10     0.410191705370E+03   -0.63683E+00   -0.40296E-01 10533   0.499E-01    0.208E+01
RMM:  11     0.409879384567E+03   -0.31232E+00   -0.25411E+00 10109   0.105E+00    0.180E+01
RMM:  12     0.410349149382E+03    0.46976E+00   -0.15559E-01 11723   0.246E-01    0.175E+01
RMM:  13     0.410871583231E+03    0.52243E+00   -0.10282E-01 10024   0.260E-01    0.157E+01
RMM:  14     0.411281944537E+03    0.41036E+00   -0.38701E-02 10107   0.170E-01    0.142E+01
RMM:  15     0.412092327600E+03    0.81038E+00   -0.51364E-02 10097   0.172E-01    0.116E+01
RMM:  16     0.412566973393E+03    0.47465E+00   -0.53258E-02 10107   0.180E-01    0.927E+00
RMM:  17     0.412756467472E+03    0.18949E+00   -0.10089E-02 10888   0.711E-02    0.842E+00
RMM:  18     0.413172641105E+03    0.41617E+00   -0.25636E-02  9910   0.118E-01    0.642E+00
RMM:  19     0.413318182672E+03    0.14554E+00   -0.12895E-02 10471   0.813E-02    0.571E+00
RMM:  20     0.413621612513E+03    0.30343E+00   -0.25752E-02 10041   0.112E-01    0.362E+00
RMM:  21     0.413702776610E+03    0.81164E-01   -0.79502E-03 10696   0.566E-02    0.299E+00
RMM:  22     0.413768358620E+03    0.65582E-01   -0.52898E-03 10111   0.506E-02    0.252E+00
RMM:  23     0.413876690085E+03    0.10833E+00   -0.26583E-02  9996   0.105E-01    0.734E-01
RMM:  24     0.413880248191E+03    0.35581E-02   -0.28616E-03 10854   0.328E-02    0.627E-01
RMM:  25     0.413886314449E+03    0.60663E-02   -0.16973E-03  9776   0.251E-02    0.399E-01
RMM:  26     0.413888864699E+03    0.25503E-02   -0.16921E-03  9368   0.225E-02    0.127E-01
RMM:  27     0.413888551994E+03   -0.31271E-03   -0.37045E-04  8704   0.116E-02    0.354E-02
RMM:  28     0.413887284141E+03   -0.12679E-02   -0.12339E-04  7617   0.671E-03    0.238E-02
RMM:  29     0.413886362812E+03   -0.92133E-03   -0.46108E-05  7197   0.515E-03    0.417E-02
RMM:  30     0.413885871444E+03   -0.49137E-03   -0.31954E-05  6424   0.424E-03    0.948E-03
RMM:  31     0.413885260762E+03   -0.61068E-03   -0.65830E-05  6369   0.430E-03    0.226E-02
RMM:  32     0.413884894108E+03   -0.36665E-03   -0.44530E-05  6366   0.355E-03    0.492E-02
RMM:  33     0.413884714324E+03   -0.17978E-03    0.12545E-05  5790   0.258E-03    0.199E-02
RMM:  34     0.413884636202E+03   -0.78122E-04    0.26459E-05  4528   0.167E-03    0.150E-02
RMM:  35     0.413884539237E+03   -0.96966E-04    0.29169E-05  5376   0.182E-03    0.377E-03
RMM:  36     0.413884507270E+03   -0.31967E-04    0.38122E-05  3767   0.134E-03    0.258E-03
RMM:  37     0.413884465544E+03   -0.41726E-04    0.24987E-05  4750   0.150E-03    0.172E-03
RMM:  38     0.413884452261E+03   -0.13283E-04    0.51378E-06  3757   0.121E-03    0.876E-04
RMM:  39     0.413884445835E+03   -0.64266E-05    0.16614E-07  3504   0.112E-03
  13 F= 0.41388445E+03 E0= 0.41390846E+03  d E =-.807810E+02  mag=     0.0016
       N       E                     dE             d eps       ncg     rms          rms(c)
DAV:   1     0.145837204853E+04    0.10445E+04   -0.35005E+04 11812   0.313E+02    0.969E+01
RMM:   2    -0.466809522702E+04   -0.61265E+04   -0.26292E+04 13605   0.144E+02    0.316E+02
RMM:   3    -0.225028250508E+01    0.46658E+04   -0.15272E+03 11020   0.354E+01    0.753E+01
RMM:   4     0.209059455599E+02    0.23156E+02   -0.66134E+02 10640   0.176E+01    0.102E+02
RMM:   5     0.320767000162E+03    0.29986E+03   -0.12236E+02 10524   0.872E+00    0.497E+01
RMM:   6     0.334269473802E+03    0.13502E+02   -0.22387E+01 10802   0.325E+00    0.510E+01
RMM:   7     0.333975508818E+03   -0.29396E+00   -0.18729E+01 10015   0.303E+00    0.470E+01
RMM:   8     0.344426283130E+03    0.10451E+02   -0.34551E+00 10671   0.112E+00    0.449E+01
RMM:   9     0.309952462868E+03   -0.34474E+02   -0.28281E+01  9873   0.425E+00    0.399E+01
RMM:  10     0.320349692605E+03    0.10397E+02   -0.64906E+00 10174   0.222E+00    0.333E+01
RMM:  11     0.330282561650E+03    0.99329E+01   -0.44305E+00 10143   0.156E+00    0.318E+01
RMM:  12     0.339171204536E+03    0.88886E+01   -0.19164E+00 10114   0.106E+00    0.257E+01
RMM:  13     0.342509150515E+03    0.33379E+01   -0.54484E-01 10499   0.563E-01    0.233E+01
RMM:  14     0.346692113427E+03    0.41830E+01   -0.28995E-01 10282   0.429E-01    0.198E+01
RMM:  15     0.348800229540E+03    0.21081E+01   -0.24125E-01 10313   0.389E-01    0.177E+01
RMM:  16     0.350496207981E+03    0.16960E+01   -0.57924E-02 10607   0.181E-01    0.159E+01
RMM:  17     0.351342575999E+03    0.84637E+00   -0.17137E-02 11062   0.101E-01    0.150E+01
RMM:  18     0.353286829049E+03    0.19443E+01   -0.79634E-02  9992   0.224E-01    0.125E+01
RMM:  19     0.356019907238E+03    0.27331E+01   -0.18098E-01  9843   0.330E-01    0.815E+00
RMM:  20     0.356527902324E+03    0.50800E+00   -0.91454E-02 10336   0.207E-01    0.734E+00
RMM:  21     0.357274212406E+03    0.74631E+00   -0.43116E-02 10195   0.150E-01    0.569E+00
RMM:  22     0.357667133705E+03    0.39292E+00   -0.19609E-02 10642   0.979E-02    0.480E+00
RMM:  23     0.358007264219E+03    0.34013E+00   -0.20945E-02 10083   0.105E-01    0.381E+00
RMM:  24     0.358298878829E+03    0.29161E+00   -0.27097E-02 10085   0.119E-01    0.269E+00
RMM:  25     0.358420035788E+03    0.12116E+00   -0.10062E-02 10738   0.654E-02    0.196E+00
RMM:  26     0.358459447152E+03    0.39411E-01   -0.29650E-03 10700   0.393E-02    0.170E+00
RMM:  27     0.358564563051E+03    0.10512E+00   -0.25778E-02  9780   0.116E-01    0.310E-01
RMM:  28     0.358565161212E+03    0.59816E-03   -0.28818E-03 11061   0.413E-02    0.208E-01
RMM:  29     0.358562479201E+03   -0.26820E-02   -0.90008E-04  9997   0.256E-02    0.275E-01
RMM:  30     0.358563169426E+03    0.69022E-03   -0.51777E-04  9980   0.195E-02    0.257E-01
RMM:  31     0.358563618031E+03    0.44860E-03   -0.62907E-04  9267   0.159E-02    0.193E-01
RMM:  32     0.358564133131E+03    0.51510E-03   -0.18065E-04  8788   0.116E-02    0.718E-02
RMM:  33     0.358563599917E+03   -0.53321E-03   -0.19459E-04  8256   0.983E-03    0.460E-02
RMM:  34     0.358562484535E+03   -0.11154E-02   -0.19195E-04  8122   0.966E-03    0.117E-01
RMM:  35     0.358562330124E+03   -0.15441E-03   -0.79444E-05  7905   0.868E-03    0.382E-02
RMM:  36     0.358562225341E+03   -0.10478E-03    0.56578E-05  5817   0.311E-03    0.376E-02
RMM:  37     0.358561925883E+03   -0.29946E-03    0.46835E-05  6677   0.408E-03    0.151E-02
RMM:  38     0.358561637174E+03   -0.28871E-03    0.34452E-05  7078   0.487E-03    0.323E-02
RMM:  39     0.358561582386E+03   -0.54788E-04    0.10018E-04  5433   0.238E-03    0.151E-02
RMM:  40     0.358561568573E+03   -0.13814E-04    0.12314E-04  4254   0.131E-03    0.103E-02
RMM:  41     0.358561507925E+03   -0.60648E-04    0.14469E-04  4029   0.124E-03    0.101E-02
RMM:  42     0.358561493662E+03   -0.14263E-04    0.17411E-04  4157   0.116E-03    0.663E-03
RMM:  43     0.358561464744E+03   -0.28918E-04    0.20801E-04  4754   0.131E-03    0.141E-03
RMM:  44     0.358561458010E+03   -0.67339E-05    0.25382E-04  3238   0.968E-04    0.110E-03
RMM:  45     0.358561439887E+03   -0.18123E-04    0.93624E-05  2677   0.850E-04    0.115E-03
RMM:  46     0.358561437041E+03   -0.28461E-05    0.42135E-05  2604   0.851E-04
  14 F= 0.35856144E+03 E0= 0.35856756E+03  d E =-.136104E+03  mag=     0.0013
       N       E                     dE             d eps       ncg     rms          rms(c)
DAV:   1     0.389141336098E+03    0.30580E+02   -0.32652E+03 11060   0.867E+01    0.277E+01
RMM:   2     0.182001048469E+03   -0.20714E+03   -0.85935E+02 10248   0.289E+01    0.515E+01
RMM:   3     0.310712347892E+03    0.12871E+03   -0.41269E+01 10089   0.628E+00    0.341E+01
RMM:   4     0.321009477170E+03    0.10297E+02   -0.48892E+00 10751   0.197E+00    0.249E+01
RMM:   5     0.305588246737E+03   -0.15421E+02   -0.75135E+00 10048   0.187E+00    0.279E+01
RMM:   6     0.313631918326E+03    0.80437E+01   -0.12715E+01 10085   0.262E+00    0.207E+01
RMM:   7     0.322172149705E+03    0.85402E+01   -0.74765E+00 10022   0.212E+00    0.705E+00
RMM:   8     0.322732026532E+03    0.55988E+00   -0.16320E+00 10245   0.992E-01    0.462E+00
RMM:   9     0.323048300254E+03    0.31627E+00   -0.43454E-01 10042   0.518E-01    0.313E+00
RMM:  10     0.323120488224E+03    0.72188E-01   -0.25599E-01 10051   0.383E-01    0.233E+00
RMM:  11     0.323209155666E+03    0.88667E-01   -0.10528E-01 10297   0.256E-01    0.117E+00
RMM:  12     0.323233670551E+03    0.24515E-01   -0.29423E-02 10166   0.143E-01    0.708E-01
RMM:  13     0.323235464462E+03    0.17939E-02   -0.10309E-02 10255   0.858E-02    0.479E-01
RMM:  14     0.323238548509E+03    0.30840E-02   -0.48745E-03 10213   0.540E-02    0.290E-01
RMM:  15     0.323239707620E+03    0.11591E-02   -0.17610E-03 10022   0.349E-02    0.183E-01
RMM:  16     0.323240074795E+03    0.36718E-03   -0.78960E-04  9292   0.243E-02    0.113E-01
RMM:  17     0.323240234253E+03    0.15946E-03   -0.24857E-04  8517   0.134E-02    0.543E-02
RMM:  18     0.323240238781E+03    0.45283E-05   -0.12300E-04  8409   0.881E-03    0.274E-02
RMM:  19     0.323240159179E+03   -0.79602E-04   -0.30953E-05  6978   0.469E-03    0.166E-02
RMM:  20     0.323240055206E+03   -0.10397E-03   -0.12441E-05  5837   0.329E-03    0.105E-02
RMM:  21     0.323239896776E+03   -0.15843E-03   -0.19514E-05  6033   0.314E-03    0.778E-03
RMM:  22     0.323239760976E+03   -0.13580E-03   -0.16908E-05  5835   0.272E-03    0.568E-03
RMM:  23     0.323239670702E+03   -0.90274E-04   -0.74982E-06  5042   0.195E-03    0.409E-03
RMM:  24     0.323239614396E+03   -0.56306E-04   -0.27793E-06  4257   0.146E-03    0.290E-03
RMM:  25     0.323239545451E+03   -0.68945E-04   -0.38469E-06  4844   0.145E-03    0.209E-03
RMM:  26     0.323239491981E+03   -0.53470E-04   -0.37342E-06  4384   0.132E-03    0.141E-03
RMM:  27     0.323239475501E+03   -0.16480E-04   -0.78594E-07  3676   0.106E-03    0.792E-04
RMM:  28     0.323239463608E+03   -0.11893E-04   -0.23638E-07  3520   0.972E-04    0.688E-04
RMM:  29     0.323239452379E+03   -0.11229E-04    0.10216E-07  3402   0.928E-04    0.452E-04
RMM:  30     0.323239444867E+03   -0.75125E-05    0.73861E-08  3601   0.977E-04
  15 F= 0.32323944E+03 E0= 0.32325278E+03  d E =-.353220E+02  mag=     0.0013
       N       E                     dE             d eps       ncg     rms          rms(c)
DAV:   1     0.548850196779E+03    0.22561E+03   -0.96918E+03 11092   0.159E+02    0.428E+01
RMM:   2    -0.917371021144E+03   -0.14662E+04   -0.53641E+03 11191   0.654E+01    0.171E+02
RMM:   3     0.235971268184E+03    0.11533E+04   -0.24038E+02 10277   0.142E+01    0.553E+01
RMM:   4     0.277231627360E+03    0.41260E+02   -0.35810E+01 10347   0.492E+00    0.419E+01
RMM:   5     0.276942116362E+03   -0.28951E+00   -0.13991E+01 10292   0.290E+00    0.357E+01
RMM:   6     0.281725853485E+03    0.47837E+01   -0.11588E+01 10163   0.251E+00    0.327E+01
RMM:   7     0.271907834658E+03   -0.98180E+01   -0.11363E+01 10059   0.245E+00    0.258E+01
RMM:   8     0.283030375160E+03    0.11123E+02   -0.46730E+00 10230   0.154E+00    0.180E+01
RMM:   9     0.291390796445E+03    0.83604E+01   -0.34583E+00  9969   0.146E+00    0.979E+00
RMM:  10     0.292269238724E+03    0.87844E+00   -0.68579E-01 10138   0.737E-01    0.774E+00
RMM:  11     0.292438919305E+03    0.16968E+00   -0.26336E-01 10099   0.447E-01    0.632E+00
RMM:  12     0.292593043418E+03    0.15412E+00   -0.12050E-01 10111   0.299E-01    0.491E+00
RMM:  13     0.292755657120E+03    0.16261E+00   -0.74136E-02 10071   0.231E-01    0.329E+00
RMM:  14     0.292773133461E+03    0.17476E-01   -0.40135E-02 10339   0.151E-01    0.246E+00
RMM:  15     0.292796021947E+03    0.22888E-01   -0.14977E-02 10262   0.103E-01    0.185E+00
RMM:  16     0.292811385500E+03    0.15364E-01   -0.74397E-03 10285   0.697E-02    0.127E+00
RMM:  17     0.292816684652E+03    0.52992E-02   -0.14672E-03 10740   0.301E-02    0.110E+00
RMM:  18     0.292823273139E+03    0.65885E-02   -0.95122E-04 10066   0.254E-02    0.815E-01
RMM:  19     0.292827741649E+03    0.44685E-02   -0.12677E-03 10089   0.258E-02    0.534E-01
RMM:  20     0.292828509273E+03    0.76762E-03   -0.22673E-04  9522   0.115E-02    0.451E-01
RMM:  21     0.292829997044E+03    0.14878E-02   -0.50712E-04  9132   0.174E-02    0.269E-01
RMM:  22     0.292830831862E+03    0.83482E-03   -0.40585E-04  8952   0.141E-02    0.122E-01
RMM:  23     0.292830659188E+03   -0.17267E-03   -0.30923E-04  8413   0.123E-02    0.230E-02
RMM:  24     0.292830142015E+03   -0.51717E-03   -0.14929E-04  7719   0.791E-03    0.563E-02
RMM:  25     0.292829894661E+03   -0.24735E-03   -0.14860E-05  5939   0.387E-03    0.420E-02
RMM:  26     0.292829657895E+03   -0.23677E-03   -0.90877E-06  5647   0.284E-03    0.263E-02
RMM:  27     0.292829299175E+03   -0.35872E-03   -0.23495E-05  6068   0.281E-03    0.175E-02
RMM:  28     0.292829084966E+03   -0.21421E-03   -0.14769E-05  5703   0.230E-03    0.718E-03
RMM:  29     0.292828950246E+03   -0.13472E-03   -0.67815E-06  5470   0.193E-03    0.527E-03
RMM:  30     0.292828908069E+03   -0.42177E-04   -0.29914E-06  4205   0.133E-03    0.276E-03
RMM:  31     0.292828865127E+03   -0.42943E-04   -0.18475E-06  4132   0.123E-03    0.581E-03
RMM:  32     0.292828836699E+03   -0.28428E-04   -0.11460E-06  3717   0.108E-03    0.311E-03
RMM:  33     0.292828802748E+03   -0.33951E-04   -0.22851E-06  4250   0.121E-03    0.301E-03
RMM:  34     0.292828794090E+03   -0.86585E-05   -0.89432E-07  3273   0.971E-04
  16 F= 0.29282879E+03 E0= 0.29283804E+03  d E =-.657326E+02  mag=    -0.0020
       N       E                     dE             d eps       ncg     rms          rms(c)
DAV:   1     0.317657030152E+03    0.24828E+02   -0.16546E+03 10948   0.577E+01    0.128E+01
RMM:   2     0.256760274774E+03   -0.60897E+02   -0.33287E+02 10173   0.180E+01    0.274E+01
RMM:   3     0.287132148047E+03    0.30372E+02   -0.16293E+01 10532   0.355E+00    0.152E+01
RMM:   4     0.287678583207E+03    0.54644E+00   -0.17657E+00 10914   0.107E+00    0.117E+01
RMM:   5     0.285509584559E+03   -0.21690E+01   -0.16589E+00  9992   0.870E-01    0.130E+01
RMM:   6     0.287496754456E+03    0.19872E+01   -0.26312E+00  9927   0.124E+00    0.868E+00
RMM:   7     0.288538030978E+03    0.10413E+01   -0.14168E+00 10183   0.935E-01    0.438E+00
RMM:   8     0.288847924061E+03    0.30989E+00   -0.34527E-01  9922   0.489E-01    0.222E+00
RMM:   9     0.288924132043E+03    0.76208E-01   -0.11672E-01 10422   0.284E-01    0.150E+00
RMM:  10     0.288949861794E+03    0.25730E-01   -0.56120E-02  9817   0.211E-01    0.104E+00
RMM:  11     0.288968228145E+03    0.18366E-01   -0.19640E-02 10261   0.122E-01    0.714E-01
RMM:  12     0.288969961306E+03    0.17332E-02   -0.41479E-03 10472   0.545E-02    0.519E-01
RMM:  13     0.288972901975E+03    0.29407E-02   -0.64959E-03 10244   0.623E-02    0.275E-01
RMM:  14     0.288974812014E+03    0.19100E-02   -0.23476E-03  9997   0.394E-02    0.102E-01
RMM:  15     0.288974966225E+03    0.15421E-03   -0.55933E-04  9881   0.184E-02    0.643E-02
RMM:  16     0.288975006032E+03    0.39807E-04   -0.10931E-04  8379   0.895E-03    0.341E-02
RMM:  17     0.288975001297E+03   -0.47353E-05   -0.47047E-05  7630   0.584E-03
  17 F= 0.28897500E+03 E0= 0.28898743E+03  d E =-.695864E+02  mag=    -0.0010
       N       E                     dE             d eps       ncg     rms          rms(c)
DAV:   1     0.270895230632E+03   -0.18080E+02   -0.40179E+02 10992   0.293E+01    0.136E+01
RMM:   2     0.261834950243E+03   -0.90603E+01   -0.54909E+01 10180   0.847E+00    0.169E+01
RMM:   3     0.262922584946E+03    0.10876E+01   -0.38835E+00 10942   0.181E+00    0.159E+01
RMM:   4     0.264031055423E+03    0.11085E+01   -0.82622E-01 10407   0.686E-01    0.136E+01
RMM:   5     0.264548922116E+03    0.51787E+00   -0.14166E+00 10107   0.794E-01    0.104E+01
RMM:   6     0.264867216022E+03    0.31829E+00   -0.34014E+00 10081   0.139E+00    0.805E+00
RMM:   7     0.266232065211E+03    0.13648E+01   -0.14269E+00 10082   0.915E-01    0.369E+00
RMM:   8     0.266637017200E+03    0.40495E+00   -0.28906E-01 10240   0.410E-01    0.175E+00
RMM:   9     0.266687823129E+03    0.50806E-01   -0.55347E-02 10111   0.183E-01    0.139E+00
RMM:  10     0.266712685975E+03    0.24863E-01   -0.29161E-02 10030   0.134E-01    0.804E-01
RMM:  11     0.266723258308E+03    0.10572E-01   -0.21691E-02 10024   0.113E-01    0.426E-01
RMM:  12     0.266725386171E+03    0.21279E-02   -0.62777E-03 10023   0.630E-02    0.287E-01
RMM:  13     0.266726726013E+03    0.13398E-02   -0.18934E-03  9790   0.358E-02    0.144E-01
RMM:  14     0.266726987599E+03    0.26159E-03   -0.64522E-04  9514   0.191E-02    0.850E-02
RMM:  15     0.266727036048E+03    0.48449E-04   -0.22529E-04  8907   0.119E-02    0.516E-02
RMM:  16     0.266727071080E+03    0.35032E-04   -0.97348E-05  8158   0.816E-03    0.281E-02
RMM:  17     0.266727059483E+03   -0.11597E-04   -0.19996E-05  6548   0.418E-03    0.161E-02
RMM:  18     0.266727011624E+03   -0.47859E-04   -0.19363E-05  6036   0.383E-03    0.120E-02
RMM:  19     0.266726970793E+03   -0.40831E-04   -0.12976E-05  5752   0.299E-03    0.751E-03
RMM:  20     0.266726932469E+03   -0.38324E-04   -0.57936E-06  4787   0.193E-03    0.450E-03
RMM:  21     0.266726880381E+03   -0.52088E-04   -0.62324E-06  4755   0.172E-03    0.420E-03
RMM:  22     0.266726853703E+03   -0.26678E-04   -0.25065E-06  4152   0.138E-03    0.402E-03
RMM:  23     0.266726843801E+03   -0.99018E-05   -0.95132E-07  3472   0.108E-03
  18 F= 0.26672684E+03 E0= 0.26673552E+03  d E =-.222482E+02  mag=    -0.0016
       N       E                     dE             d eps       ncg     rms          rms(c)
DAV:   1     0.287639724956E+03    0.20913E+02   -0.36581E+03 10960   0.943E+01    0.281E+01
RMM:   2     0.187250816571E+03   -0.10039E+03   -0.74864E+02 10137   0.291E+01    0.407E+01
RMM:   3     0.189144412193E+03    0.18936E+01   -0.39821E+01 10819   0.631E+00    0.455E+01
RMM:   4     0.222850695071E+03    0.33706E+02   -0.10016E+01 10933   0.258E+00    0.282E+01
RMM:   5     0.225914880041E+03    0.30642E+01   -0.56421E+00 10203   0.167E+00    0.234E+01
RMM:   6     0.222148245699E+03   -0.37666E+01   -0.11244E+01  9955   0.264E+00    0.226E+01
RMM:   7     0.227025965028E+03    0.48777E+01   -0.89062E+00 10131   0.224E+00    0.123E+01
RMM:   8     0.231333359093E+03    0.43074E+01   -0.51081E+00 10230   0.171E+00    0.651E+00
RMM:   9     0.232059993271E+03    0.72663E+00   -0.72685E-01 10229   0.729E-01    0.392E+00
RMM:  10     0.232180437667E+03    0.12044E+00   -0.17815E-01 10114   0.373E-01    0.243E+00
RMM:  11     0.232238759988E+03    0.58322E-01   -0.14936E-01  9824   0.343E-01    0.142E+00
RMM:  12     0.232266072287E+03    0.27312E-01   -0.36687E-02 10343   0.166E-01    0.606E-01
RMM:  13     0.232266772846E+03    0.70056E-03   -0.10103E-02 10443   0.852E-02    0.431E-01
RMM:  14     0.232269108921E+03    0.23361E-02   -0.48741E-03 10220   0.590E-02    0.252E-01
RMM:  15     0.232269691318E+03    0.58240E-03   -0.10820E-03 10491   0.279E-02    0.144E-01
RMM:  16     0.232269788185E+03    0.96867E-04   -0.56527E-04  9806   0.205E-02    0.605E-02
RMM:  17     0.232269785500E+03   -0.26850E-05   -0.19092E-04  9495   0.111E-02    0.485E-02
RMM:  18     0.232269744390E+03   -0.41110E-04   -0.84810E-05  8099   0.801E-03    0.431E-02
RMM:  19     0.232269697231E+03   -0.47159E-04   -0.28392E-05  6280   0.485E-03    0.444E-02
RMM:  20     0.232269766563E+03    0.69332E-04   -0.29233E-05  5967   0.452E-03    0.388E-02
RMM:  21     0.232269820971E+03    0.54409E-04   -0.11023E-04  6489   0.733E-03    0.208E-02
RMM:  22     0.232269785248E+03   -0.35723E-04   -0.23488E-05  6437   0.449E-03    0.133E-02
RMM:  23     0.232269697080E+03   -0.88169E-04   -0.10813E-05  5618   0.310E-03    0.104E-02
RMM:  24     0.232269550905E+03   -0.14617E-03   -0.19728E-05  5919   0.291E-03    0.624E-03
RMM:  25     0.232269459505E+03   -0.91400E-04   -0.98964E-06  4948   0.214E-03    0.397E-03
RMM:  26     0.232269381468E+03   -0.78038E-04   -0.62767E-06  4763   0.173E-03    0.292E-03
RMM:  27     0.232269331735E+03   -0.49733E-04   -0.34202E-06  4553   0.141E-03    0.161E-03
RMM:  28     0.232269283342E+03   -0.48393E-04   -0.36466E-06  4612   0.133E-03    0.127E-03
RMM:  29     0.232269256318E+03   -0.27024E-04   -0.18019E-06  4056   0.113E-03    0.700E-04
RMM:  30     0.232269235304E+03   -0.21014E-04   -0.17347E-06  4285   0.115E-03    0.558E-04
RMM:  31     0.232269228778E+03   -0.65255E-05   -0.55922E-07  3157   0.895E-04
  19 F= 0.23226923E+03 E0= 0.23229042E+03  d E =-.567058E+02  mag=    -0.0001
       N       E                     dE             d eps       ncg     rms          rms(c)
DAV:   1     0.232661462840E+03    0.39223E+00   -0.15104E+02 10904   0.176E+01    0.493E+00
RMM:   2     0.228625779889E+03   -0.40357E+01   -0.17796E+01 10099   0.480E+00    0.960E+00
RMM:   3     0.230438889399E+03    0.18131E+01   -0.10653E+00 11234   0.923E-01    0.639E+00
RMM:   4     0.231036344620E+03    0.59746E+00   -0.31171E-01 10338   0.412E-01    0.449E+00
RMM:   5     0.230821269388E+03   -0.21508E+00   -0.27962E-01 10052   0.356E-01    0.509E+00
RMM:   6     0.231195733161E+03    0.37446E+00   -0.34433E-01 10026   0.448E-01    0.288E+00
RMM:   7     0.231239524833E+03    0.43792E-01   -0.18635E-01 10342   0.325E-01    0.166E+00
RMM:   8     0.231314371696E+03    0.74847E-01   -0.49795E-02  9960   0.172E-01    0.132E+00
RMM:   9     0.231338167109E+03    0.23795E-01   -0.73387E-03 10106   0.721E-02    0.568E-01
RMM:  10     0.231342509269E+03    0.43422E-02   -0.42281E-03  9690   0.540E-02    0.387E-01
RMM:  11     0.231344345417E+03    0.18361E-02   -0.25618E-03  9565   0.387E-02    0.155E-01
RMM:  12     0.231344764555E+03    0.41914E-03   -0.86458E-04  9752   0.234E-02    0.967E-02
RMM:  13     0.231344925814E+03    0.16126E-03   -0.16074E-04  8669   0.109E-02    0.351E-02
RMM:  14     0.231344928137E+03    0.23232E-05   -0.33248E-05  7311   0.537E-03
  20 F= 0.23134493E+03 E0= 0.23137066E+03  d E =-.576301E+02  mag=    -0.0001
       N       E                     dE             d eps       ncg     rms          rms(c)
DAV:   1     0.220208202492E+03   -0.11137E+02   -0.85264E+02 10868   0.427E+01    0.134E+01
RMM:   2     0.204767816432E+03   -0.15440E+02   -0.11573E+02 10102   0.122E+01    0.207E+01
RMM:   3     0.205979772876E+03    0.12120E+01   -0.75395E+00 11119   0.248E+00    0.169E+01
RMM:   4     0.209087682466E+03    0.31079E+01   -0.10279E+00 10588   0.818E-01    0.149E+01
RMM:   5     0.208066065167E+03   -0.10216E+01   -0.14434E+00 10098   0.822E-01    0.130E+01
RMM:   6     0.210101328565E+03    0.20353E+01   -0.18462E+00 10090   0.102E+00    0.849E+00
RMM:   7     0.210865462166E+03    0.76413E+00   -0.15511E+00 10136   0.980E-01    0.423E+00
RMM:   8     0.211171910172E+03    0.30645E+00   -0.28850E-01 10209   0.444E-01    0.281E+00
RMM:   9     0.211204461284E+03    0.32551E-01   -0.81081E-02 10102   0.232E-01    0.183E+00
RMM:  10     0.211237585621E+03    0.33124E-01   -0.10351E-01 10091   0.233E-01    0.150E+00
RMM:  11     0.211269313670E+03    0.31728E-01   -0.38509E-02 10224   0.160E-01    0.600E-01
RMM:  12     0.211273393777E+03    0.40801E-02   -0.15504E-02 10434   0.982E-02    0.584E-01
RMM:  13     0.211278610735E+03    0.52170E-02   -0.24715E-03 10042   0.443E-02    0.203E-01
RMM:  14     0.211278812282E+03    0.20155E-03   -0.65273E-04 10270   0.219E-02    0.111E-01
RMM:  15     0.211278839807E+03    0.27525E-04   -0.31621E-04  9030   0.158E-02    0.693E-02
RMM:  16     0.211278832230E+03   -0.75770E-05   -0.10342E-04  8305   0.927E-03    0.307E-02
RMM:  17     0.211278811370E+03   -0.20859E-04   -0.26891E-05  6969   0.519E-03    0.175E-02
RMM:  18     0.211278785598E+03   -0.25772E-04   -0.12539E-05  6002   0.359E-03    0.122E-02
RMM:  19     0.211278761526E+03   -0.24073E-04   -0.42918E-06  5174   0.246E-03    0.427E-03
RMM:  20     0.211278733429E+03   -0.28097E-04   -0.26676E-06  5053   0.181E-03    0.269E-03
RMM:  21     0.211278714510E+03   -0.18919E-04   -0.16650E-06  4483   0.147E-03    0.231E-03
RMM:  22     0.211278680471E+03   -0.34039E-04   -0.23005E-06  4450   0.136E-03    0.218E-03
RMM:  23     0.211278662186E+03   -0.18285E-04   -0.13837E-06  4144   0.121E-03    0.219E-03
RMM:  24     0.211278660461E+03   -0.17246E-05   -0.46718E-07  3084   0.936E-04
  21 F= 0.21127866E+03 E0= 0.21128010E+03  d E =-.200663E+02  mag=     0.0005
       N       E                     dE             d eps       ncg     rms          rms(c)
DAV:   1     0.217076226676E+03    0.57976E+01   -0.14542E+03 10856   0.564E+01    0.177E+01
RMM:   2     0.183043139468E+03   -0.34033E+02   -0.23297E+02 10119   0.169E+01    0.270E+01
RMM:   3     0.186875497313E+03    0.38324E+01   -0.12001E+01 10732   0.338E+00    0.255E+01
RMM:   4     0.197814218357E+03    0.10939E+02   -0.20751E+00 10754   0.121E+00    0.167E+01
RMM:   5     0.192031933554E+03   -0.57823E+01   -0.29764E+00 10096   0.116E+00    0.178E+01
RMM:   6     0.192593190773E+03    0.56126E+00   -0.57613E+00 10049   0.185E+00    0.156E+01
RMM:   7     0.197583196662E+03    0.49900E+01   -0.43402E+00 10097   0.153E+00    0.696E+00
RMM:   8     0.199252961204E+03    0.16698E+01   -0.13331E+00 10311   0.871E-01    0.326E+00
RMM:   9     0.199411135328E+03    0.15817E+00   -0.25171E-01 10228   0.410E-01    0.208E+00
RMM:  10     0.199468488608E+03    0.57353E-01   -0.15356E-01 10069   0.318E-01    0.133E+00
RMM:  11     0.199498985915E+03    0.30497E-01   -0.40980E-02 10327   0.154E-01    0.772E-01
RMM:  12     0.199500782697E+03    0.17968E-02   -0.13979E-02 10689   0.893E-02    0.566E-01
RMM:  13     0.199506471005E+03    0.56883E-02   -0.74989E-03  9992   0.704E-02    0.253E-01
RMM:  14     0.199508281268E+03    0.18103E-02   -0.14605E-03  9923   0.334E-02    0.121E-01
RMM:  15     0.199508553709E+03    0.27244E-03   -0.36848E-04  9547   0.149E-02    0.768E-02
RMM:  16     0.199508665248E+03    0.11154E-03   -0.13435E-04  8179   0.989E-03    0.513E-02
RMM:  17     0.199508762055E+03    0.96807E-04   -0.12235E-04  8059   0.880E-03    0.331E-02
RMM:  18     0.199508772861E+03    0.10806E-04   -0.36215E-05  7519   0.559E-03    0.177E-02
RMM:  19     0.199508737398E+03   -0.35463E-04   -0.22673E-05  6326   0.389E-03    0.123E-02
RMM:  20     0.199508663669E+03   -0.73730E-04   -0.17433E-05  6005   0.314E-03    0.777E-03
RMM:  21     0.199508598446E+03   -0.65223E-04   -0.99052E-06  5401   0.248E-03    0.637E-03
RMM:  22     0.199508532088E+03   -0.66358E-04   -0.69808E-06  4960   0.196E-03    0.511E-03
RMM:  23     0.199508470511E+03   -0.61577E-04   -0.53386E-06  4376   0.158E-03    0.476E-03
RMM:  24     0.199508460096E+03   -0.10416E-04   -0.11389E-06  3542   0.111E-03    0.499E-03
RMM:  25     0.199508479403E+03    0.19307E-04   -0.12846E-06  3612   0.119E-03    0.447E-03
RMM:  26     0.199508483502E+03    0.40990E-05   -0.16321E-06  3710   0.123E-03
  22 F= 0.19950848E+03 E0= 0.19950916E+03  d E =-.318364E+02  mag=    -0.0002
       N       E                     dE             d eps       ncg     rms          rms(c)
DAV:   1     0.200092883703E+03    0.58440E+00   -0.13460E+02 10984   0.166E+01    0.526E+00
RMM:   2     0.197694577439E+03   -0.23983E+01   -0.17085E+01 10135   0.475E+00    0.830E+00
RMM:   3     0.197794020277E+03    0.99443E-01   -0.93754E-01 11214   0.882E-01    0.817E+00
RMM:   4     0.198516209151E+03    0.72219E+00   -0.98121E-02 10507   0.247E-01    0.539E+00
RMM:   5     0.198358741171E+03   -0.15747E+00   -0.17337E-01 10078   0.273E-01    0.560E+00
RMM:   6     0.198046807726E+03   -0.31193E+00   -0.66932E-01 10068   0.586E-01    0.432E+00
RMM:   7     0.198664287843E+03    0.61748E+00   -0.41954E-01 10078   0.468E-01    0.155E+00
RMM:   8     0.198729059035E+03    0.64771E-01   -0.64559E-02 10238   0.201E-01    0.895E-01
RMM:   9     0.198737185378E+03    0.81263E-02   -0.16245E-02 10139   0.998E-02    0.646E-01
RMM:  10     0.198745091488E+03    0.79061E-02   -0.86422E-03  9916   0.777E-02    0.250E-01
RMM:  11     0.198745983552E+03    0.89206E-03   -0.17701E-03  9914   0.352E-02    0.143E-01
RMM:  12     0.198746295419E+03    0.31187E-03   -0.83872E-04  9356   0.224E-02    0.915E-02
RMM:  13     0.198746428016E+03    0.13260E-03   -0.18447E-04  8751   0.123E-02    0.520E-02
RMM:  14     0.198746455584E+03    0.27567E-04   -0.66630E-05  8263   0.740E-03    0.276E-02
RMM:  15     0.198746461037E+03    0.54529E-05   -0.27137E-05  7046   0.497E-03
  23 F= 0.19874646E+03 E0= 0.19875136E+03  d E =-.325985E+02  mag=    -0.0005
       N       E                     dE             d eps       ncg     rms          rms(c)
DAV:   1     0.194001976331E+03   -0.47445E+01   -0.85579E+02 10876   0.425E+01    0.116E+01
RMM:   2     0.172610763996E+03   -0.21391E+02   -0.13340E+02 10158   0.128E+01    0.174E+01
RMM:   3     0.175944815322E+03    0.33341E+01   -0.63857E+00 10677   0.242E+00    0.173E+01
RMM:   4     0.182078749698E+03    0.61339E+01   -0.16574E+00 10323   0.958E-01    0.927E+00
RMM:   5     0.179329883945E+03   -0.27489E+01   -0.15942E+00 10024   0.846E-01    0.114E+01
RMM:   6     0.180705932649E+03    0.13760E+01   -0.22466E+00 10174   0.112E+00    0.929E+00
RMM:   7     0.182516617543E+03    0.18107E+01   -0.14470E+00 10112   0.898E-01    0.446E+00
RMM:   8     0.182942050443E+03    0.42543E+00   -0.40185E-01 10248   0.490E-01    0.227E+00
RMM:   9     0.182988254765E+03    0.46204E-01   -0.13753E-01 10132   0.291E-01    0.185E+00
RMM:  10     0.183036744091E+03    0.48489E-01   -0.86136E-02 10096   0.232E-01    0.881E-01
RMM:  11     0.183046323250E+03    0.95792E-02   -0.29468E-02 10121   0.138E-01    0.613E-01
RMM:  12     0.183052595079E+03    0.62718E-02   -0.86979E-03 10035   0.707E-02    0.289E-01
RMM:  13     0.183053957222E+03    0.13621E-02   -0.19907E-03  9816   0.388E-02    0.139E-01
RMM:  14     0.183054274438E+03    0.31722E-03   -0.56720E-04  9174   0.203E-02    0.667E-02
RMM:  15     0.183054340799E+03    0.66361E-04   -0.17320E-04  8852   0.111E-02    0.452E-02
RMM:  16     0.183054388985E+03    0.48186E-04   -0.90077E-05  8131   0.757E-03    0.327E-02
RMM:  17     0.183054414173E+03    0.25188E-04   -0.42966E-05  7584   0.537E-03    0.213E-02
RMM:  18     0.183054414278E+03    0.10501E-06   -0.20404E-05  5979   0.372E-03
  24 F= 0.18305441E+03 E0= 0.18304801E+03  d E =-.156920E+02  mag=    -0.0004
       N       E                     dE             d eps       ncg     rms          rms(c)
DAV:   1     0.270197535737E+03    0.87143E+02   -0.55315E+03 10948   0.118E+02    0.288E+01
RMM:   2     0.533338272981E+02   -0.21686E+03   -0.13628E+03 10140   0.377E+01    0.483E+01
RMM:   3     0.120751882123E+03    0.67418E+02   -0.58960E+01 10209   0.794E+00    0.460E+01
RMM:   4     0.157328333052E+03    0.36576E+02   -0.18074E+01 10508   0.333E+00    0.266E+01
RMM:   5     0.156849645886E+03   -0.47869E+00   -0.76811E+00 10185   0.200E+00    0.238E+01
RMM:   6     0.156333892155E+03   -0.51575E+00   -0.92981E+00 10088   0.242E+00    0.218E+01
RMM:   7     0.163197777693E+03    0.68639E+01   -0.73686E+00 10104   0.204E+00    0.135E+01
RMM:   8     0.165598227173E+03    0.24004E+01   -0.45933E+00 10162   0.156E+00    0.813E+00
RMM:   9     0.166382897910E+03    0.78467E+00   -0.15480E+00 10185   0.927E-01    0.554E+00
RMM:  10     0.166703562689E+03    0.32066E+00   -0.82273E-01 10016   0.728E-01    0.294E+00
RMM:  11     0.166823458484E+03    0.11990E+00   -0.29189E-01 10349   0.428E-01    0.190E+00
RMM:  12     0.166870935320E+03    0.47477E-01   -0.78315E-02 10087   0.231E-01    0.101E+00
RMM:  13     0.166877942183E+03    0.70069E-02   -0.31278E-02 10389   0.139E-01    0.728E-01
RMM:  14     0.166888023979E+03    0.10082E-01   -0.12972E-02 10042   0.914E-02    0.349E-01
RMM:  15     0.166889692373E+03    0.16684E-02   -0.27327E-03  9403   0.398E-02    0.173E-01
RMM:  16     0.166890073051E+03    0.38068E-03   -0.82685E-04  9206   0.229E-02    0.101E-01
RMM:  17     0.166890136914E+03    0.63863E-04   -0.20708E-04  9077   0.123E-02    0.542E-02
RMM:  18     0.166890171277E+03    0.34362E-04   -0.97116E-05  8656   0.798E-03    0.266E-02
RMM:  19     0.166890141132E+03   -0.30145E-04   -0.28941E-05  7028   0.469E-03    0.168E-02
RMM:  20     0.166890092901E+03   -0.48231E-04   -0.14663E-05  5980   0.344E-03    0.103E-02
RMM:  21     0.166889992855E+03   -0.10005E-03   -0.18314E-05  5661   0.301E-03    0.664E-03
RMM:  22     0.166889921217E+03   -0.71638E-04   -0.76813E-06  5026   0.222E-03    0.531E-03
RMM:  23     0.166889833890E+03   -0.87327E-04   -0.86545E-06  5129   0.204E-03    0.357E-03
RMM:  24     0.166889771954E+03   -0.61936E-04   -0.52618E-06  4720   0.166E-03    0.216E-03
RMM:  25     0.166889730504E+03   -0.41451E-04   -0.28279E-06  4531   0.136E-03    0.172E-03
RMM:  26     0.166889687274E+03   -0.43229E-04   -0.30305E-06  4491   0.127E-03    0.114E-03
RMM:  27     0.166889662103E+03   -0.25172E-04   -0.16762E-06  4073   0.111E-03    0.707E-04
RMM:  28     0.166889644067E+03   -0.18036E-04   -0.12411E-06  3912   0.102E-03    0.695E-04
RMM:  29     0.166889629707E+03   -0.14360E-04   -0.88605E-07  3581   0.960E-04    0.392E-04
RMM:  30     0.166889623398E+03   -0.63088E-05   -0.56412E-07  3299   0.877E-04
  25 F= 0.16688962E+03 E0= 0.16687477E+03  d E =-.318568E+02  mag=    -0.0001
       N       E                     dE             d eps       ncg     rms          rms(c)
DAV:   1     0.179388004371E+03    0.12498E+02   -0.18868E+03 11076   0.651E+01    0.174E+01
RMM:   2     0.143046074141E+03   -0.36342E+02   -0.33346E+02 10122   0.195E+01    0.232E+01
RMM:   3     0.144874387098E+03    0.18283E+01   -0.17848E+01 10681   0.395E+00    0.195E+01
RMM:   4     0.140262885313E+03   -0.46115E+01   -0.34794E+00 10697   0.158E+00    0.181E+01
RMM:   5     0.142069217917E+03    0.18063E+01   -0.19765E+00 10255   0.928E-01    0.179E+01
RMM:   6     0.146595789809E+03    0.45266E+01   -0.40287E+00  9975   0.156E+00    0.117E+01
RMM:   7     0.147828023722E+03    0.12322E+01   -0.29102E+00 10118   0.121E+00    0.847E+00
RMM:   8     0.149106214670E+03    0.12782E+01   -0.10505E+00 10119   0.773E-01    0.407E+00
RMM:   9     0.149236139032E+03    0.12992E+00   -0.25747E-01 10294   0.371E-01    0.321E+00
RMM:  10     0.149341205000E+03    0.10507E+00   -0.14579E-01 10022   0.311E-01    0.167E+00
RMM:  11     0.149356701650E+03    0.15497E-01   -0.12344E-01 10040   0.260E-01    0.123E+00
RMM:  12     0.149390739322E+03    0.34038E-01   -0.34077E-02 10476   0.150E-01    0.485E-01
RMM:  13     0.149393640120E+03    0.29008E-02   -0.64479E-03 10284   0.663E-02    0.296E-01
RMM:  14     0.149394602048E+03    0.96193E-03   -0.25002E-03 10030   0.416E-02    0.172E-01
RMM:  15     0.149394814536E+03    0.21249E-03   -0.92498E-04  9547   0.238E-02    0.108E-01
RMM:  16     0.149394974360E+03    0.15982E-03   -0.32485E-04  9258   0.152E-02    0.595E-02
RMM:  17     0.149394988709E+03    0.14349E-04   -0.76367E-05  8263   0.801E-03    0.218E-02
RMM:  18     0.149394978449E+03   -0.10259E-04   -0.20756E-05  6763   0.443E-03    0.112E-02
RMM:  19     0.149394970828E+03   -0.76215E-05   -0.74757E-06  5230   0.296E-03
  26 F= 0.14939497E+03 E0= 0.14940460E+03  d E =-.174947E+02  mag=    -0.0001
       N       E                     dE             d eps       ncg     rms          rms(c)
DAV:   1     0.312928384172E+03    0.16353E+03   -0.76270E+03 11058   0.144E+02    0.320E+01
RMM:   2    -0.106638626554E+03   -0.41957E+03   -0.25091E+03 10263   0.487E+01    0.719E+01
RMM:   3     0.977616754067E+02    0.20440E+03   -0.10227E+02 10266   0.103E+01    0.570E+01
RMM:   4     0.123493710941E+03    0.25732E+02   -0.20957E+01 10619   0.385E+00    0.410E+01
RMM:   5     0.120692043870E+03   -0.28017E+01   -0.70796E+00 10423   0.198E+00    0.388E+01
RMM:   6     0.133918389284E+03    0.13226E+02   -0.53292E+00  9992   0.187E+00    0.312E+01
RMM:   7     0.128198823819E+03   -0.57196E+01   -0.10985E+01 10029   0.264E+00    0.267E+01
RMM:   8     0.138004134706E+03    0.98053E+01   -0.81335E+00 10201   0.226E+00    0.116E+01
RMM:   9     0.138673715516E+03    0.66958E+00   -0.35974E+00 10185   0.148E+00    0.829E+00
RMM:  10     0.139752347252E+03    0.10786E+01   -0.94808E-01 10288   0.760E-01    0.544E+00
RMM:  11     0.139984423579E+03    0.23208E+00   -0.45825E-01 10105   0.520E-01    0.344E+00
RMM:  12     0.140137928678E+03    0.15351E+00   -0.25329E-01 10330   0.395E-01    0.242E+00
RMM:  13     0.140184437523E+03    0.46509E-01   -0.13361E-01 10064   0.298E-01    0.158E+00
RMM:  14     0.140203570798E+03    0.19133E-01   -0.38207E-02 10576   0.158E-01    0.110E+00
RMM:  15     0.140211724008E+03    0.81532E-02   -0.99140E-03 10315   0.844E-02    0.649E-01
RMM:  16     0.140213958050E+03    0.22340E-02   -0.79850E-03 10299   0.701E-02    0.405E-01
RMM:  17     0.140215820784E+03    0.18627E-02   -0.33705E-03  9977   0.503E-02    0.147E-01
RMM:  18     0.140215934141E+03    0.11336E-03   -0.59997E-04 10114   0.206E-02    0.115E-01
RMM:  19     0.140215952083E+03    0.17943E-04   -0.18882E-04  8829   0.121E-02    0.772E-02
RMM:  20     0.140215933061E+03   -0.19022E-04   -0.83790E-05  8115   0.829E-03    0.530E-02
RMM:  21     0.140215895504E+03   -0.37557E-04   -0.37109E-05  7593   0.558E-03    0.307E-02
RMM:  22     0.140215857875E+03   -0.37629E-04   -0.17777E-05  6396   0.406E-03    0.103E-02
RMM:  23     0.140215820012E+03   -0.37863E-04   -0.53170E-06  5235   0.274E-03    0.610E-03
RMM:  24     0.140215787816E+03   -0.32196E-04   -0.28098E-06  5149   0.215E-03    0.306E-03
RMM:  25     0.140215763085E+03   -0.24732E-04   -0.11126E-06  4641   0.159E-03    0.199E-03
RMM:  26     0.140215737689E+03   -0.25396E-04   -0.85655E-07  4614   0.143E-03    0.153E-03
RMM:  27     0.140215723152E+03   -0.14536E-04   -0.25513E-07  4034   0.123E-03    0.111E-03
RMM:  28     0.140215714501E+03   -0.86511E-05   -0.29939E-07  4116   0.117E-03
  27 F= 0.14021571E+03 E0= 0.14020762E+03  d E =-.266739E+02  mag=    -0.0036
       N       E                     dE             d eps       ncg     rms          rms(c)
DAV:   1     0.149462912876E+03    0.92472E+01   -0.76803E+02 10900   0.397E+01    0.123E+01
RMM:   2     0.105678055655E+03   -0.43785E+02   -0.13098E+02 10192   0.125E+01    0.274E+01
RMM:   3     0.136644543733E+03    0.30966E+02   -0.72284E+00 10573   0.247E+00    0.141E+01
RMM:   4     0.137783549926E+03    0.11390E+01   -0.14197E+00 10406   0.987E-01    0.902E+00
RMM:   5     0.130988980003E+03   -0.67946E+01   -0.33025E+00 10165   0.117E+00    0.146E+01
RMM:   6     0.135822204640E+03    0.48332E+01   -0.30408E+00 10168   0.126E+00    0.115E+01
RMM:   7     0.138344932636E+03    0.25227E+01   -0.14321E+00 10403   0.840E-01    0.329E+00
RMM:   8     0.138554290522E+03    0.20936E+00   -0.31573E-01 10153   0.440E-01    0.160E+00
RMM:   9     0.138530956948E+03   -0.23334E-01   -0.10385E-01 10180   0.251E-01    0.196E+00
RMM:  10     0.138603472913E+03    0.72516E-01   -0.45568E-02 10362   0.159E-01    0.710E-01
RMM:  11     0.138606150257E+03    0.26773E-02   -0.17944E-02  9952   0.113E-01    0.511E-01
RMM:  12     0.138609628503E+03    0.34782E-02   -0.68435E-03  9906   0.661E-02    0.272E-01
RMM:  13     0.138610598486E+03    0.96998E-03   -0.22107E-03  9715   0.379E-02    0.175E-01
RMM:  14     0.138610984260E+03    0.38577E-03   -0.65322E-04  9165   0.214E-02    0.850E-02
RMM:  15     0.138611022736E+03    0.38476E-04   -0.15429E-04  8992   0.116E-02    0.321E-02
RMM:  16     0.138610974681E+03   -0.48055E-04   -0.58252E-05  8273   0.637E-03    0.189E-02
RMM:  17     0.138610964916E+03   -0.97647E-05   -0.19013E-05  6684   0.434E-03
  28 F= 0.13861096E+03 E0= 0.13860088E+03  d E =-.282787E+02  mag=    -0.0022
       N       E                     dE             d eps       ncg     rms          rms(c)
DAV:   1     0.139916490871E+03    0.13055E+01   -0.17529E+03 10900   0.622E+01    0.165E+01
RMM:   2     0.112758180611E+03   -0.27158E+02   -0.26454E+02 10118   0.179E+01    0.189E+01
RMM:   3     0.110381534696E+03   -0.23766E+01   -0.15542E+01 10633   0.377E+00    0.180E+01
RMM:   4     0.107266629320E+03   -0.31149E+01   -0.42082E+00 10368   0.168E+00    0.165E+01
RMM:   5     0.104895662990E+03   -0.23710E+01   -0.24189E+00 10231   0.105E+00    0.185E+01
RMM:   6     0.114506070864E+03    0.96104E+01   -0.45618E+00  9904   0.164E+00    0.116E+01
[...]
RMM:  12    -0.281935053506E+01    0.31937E-02   -0.74735E-03 10048   0.720E-02    0.249E-01
RMM:  13    -0.281812068542E+01    0.12298E-02   -0.17830E-03 10049   0.341E-02    0.123E-01
RMM:  14    -0.281793288562E+01    0.18780E-03   -0.37646E-04  9631   0.168E-02    0.719E-02
RMM:  15    -0.281788306219E+01    0.49823E-04   -0.16417E-04  8768   0.104E-02    0.481E-02
RMM:  16    -0.281787416992E+01    0.88923E-05   -0.76693E-05  8307   0.750E-03
  51 F= -.28178742E+01 E0= -.27980982E+01  d E =-.635483E+01  mag=    -0.0001
       N       E                     dE             d eps       ncg     rms          rms(c)
DAV:   1     0.174504327266E+02    0.20268E+02   -0.18397E+03 10716   0.618E+01    0.105E+01
RMM:   2    -0.209490851108E+02   -0.38400E+02   -0.27524E+02 10275   0.188E+01    0.194E+01
RMM:   3    -0.209105999556E+02    0.38485E-01   -0.12404E+01 10474   0.347E+00    0.206E+01
RMM:   4    -0.926069722326E+01    0.11650E+02   -0.39696E+00 10151   0.157E+00    0.903E+00
RMM:   5    -0.108098966992E+02   -0.15492E+01   -0.18072E+00 10128   0.919E-01    0.102E+01
RMM:   6    -0.679929080281E+01    0.40106E+01   -0.12660E+00  9984   0.801E-01    0.417E+00
RMM:   7    -0.679824316573E+01    0.10476E-02   -0.61343E-01 10211   0.600E-01    0.445E+00
RMM:   8    -0.639058806097E+01    0.40766E+00   -0.27485E-01 10179   0.427E-01    0.186E+00
RMM:   9    -0.640606585985E+01   -0.15478E-01   -0.12860E-01 10170   0.283E-01    0.158E+00
RMM:  10    -0.636707598624E+01    0.38990E-01   -0.64300E-02 10250   0.205E-01    0.797E-01
RMM:  11    -0.636230994134E+01    0.47660E-02   -0.17101E-02 10325   0.102E-01    0.472E-01
RMM:  12    -0.635848756206E+01    0.38224E-02   -0.87890E-03 10087   0.755E-02    0.274E-01
RMM:  13    -0.635640523281E+01    0.20823E-02   -0.21018E-03 10109   0.366E-02    0.108E-01
RMM:  14    -0.635623336701E+01    0.17187E-03   -0.33059E-04 10016   0.153E-02    0.505E-02
RMM:  15    -0.635623976194E+01   -0.63949E-05   -0.11080E-04  8798   0.903E-03    0.383E-02
RMM:  16    -0.635624921393E+01   -0.94520E-05   -0.62449E-05  8057   0.653E-03
  52 F= -.63562492E+01 E0= -.63394429E+01  d E =-.353838E+01  mag=    -0.0001
       N       E                     dE             d eps       ncg     rms          rms(c)
DAV:   1     0.458024085149E+01    0.10936E+02   -0.99113E+02 10630   0.445E+01    0.753E+00
RMM:   2    -0.121085059887E+02   -0.16689E+02   -0.13694E+02 10316   0.134E+01    0.121E+01
RMM:   3    -0.195649170540E+02   -0.74564E+01   -0.61899E+00 10636   0.237E+00    0.178E+01
RMM:   4    -0.873412345654E+01    0.10831E+02   -0.17909E+00 10082   0.105E+00    0.618E+00
RMM:   5    -0.988132729546E+01   -0.11472E+01   -0.85382E-01 10198   0.606E-01    0.765E+00
RMM:   6    -0.769142757032E+01    0.21899E+01   -0.61393E-01  9990   0.541E-01    0.294E+00
RMM:   7    -0.767906017393E+01    0.12367E-01   -0.33543E-01 10196   0.440E-01    0.326E+00
RMM:   8    -0.747285855540E+01    0.20620E+00   -0.15176E-01 10113   0.324E-01    0.128E+00
RMM:   9    -0.747075254565E+01    0.21060E-02   -0.55706E-02 10098   0.189E-01    0.980E-01
RMM:  10    -0.745860873700E+01    0.12144E-01   -0.25401E-02 10174   0.132E-01    0.540E-01
RMM:  11    -0.745553823678E+01    0.30705E-02   -0.78297E-03 10155   0.698E-02    0.317E-01
RMM:  12    -0.745376859118E+01    0.17696E-02   -0.39749E-03  9969   0.509E-02    0.187E-01
RMM:  13    -0.745292059590E+01    0.84800E-03   -0.89592E-04  9859   0.243E-02    0.778E-02
RMM:  14    -0.745285337024E+01    0.67226E-04   -0.18171E-04  9244   0.117E-02    0.436E-02
RMM:  15    -0.745284887358E+01    0.44967E-05   -0.66212E-05  8234   0.693E-03
  53 F= -.74528489E+01 E0= -.74431622E+01  d E =-.463497E+01  mag=    -0.0001
       N       E                     dE             d eps       ncg     rms          rms(c)
DAV:   1    -0.360278799037E+01    0.38501E+01   -0.53458E+02 10772   0.327E+01    0.551E+00
RMM:   2    -0.122848228654E+02   -0.86820E+01   -0.69699E+01 10299   0.980E+00    0.905E+00
RMM:   3    -0.161239416597E+02   -0.38391E+01   -0.32590E+00 10891   0.170E+00    0.136E+01
RMM:   4    -0.115514516211E+02    0.45725E+01   -0.83010E-01 10044   0.695E-01    0.669E+00
RMM:   5    -0.107079020066E+02    0.84355E+00   -0.63584E-01 10108   0.518E-01    0.486E+00
RMM:   6    -0.974718902029E+01    0.96071E+00   -0.38332E-01 10047   0.446E-01    0.224E+00
RMM:   7    -0.973321396463E+01    0.13975E-01   -0.19446E-01 10111   0.327E-01    0.239E+00
RMM:   8    -0.964455419035E+01    0.88660E-01   -0.10408E-01 10131   0.271E-01    0.877E-01
RMM:   9    -0.963924315084E+01    0.53110E-02   -0.25946E-02 10115   0.129E-01    0.621E-01
RMM:  10    -0.963660326811E+01    0.26399E-02   -0.15547E-02 10228   0.988E-02    0.519E-01
RMM:  11    -0.963136303566E+01    0.52402E-02   -0.43148E-03  9945   0.542E-02    0.202E-01
RMM:  12    -0.963129456762E+01    0.68468E-04   -0.14349E-03  9795   0.324E-02    0.132E-01
RMM:  13    -0.963115181170E+01    0.14276E-03   -0.65104E-04  9300   0.195E-02    0.105E-01
RMM:  14    -0.963094771585E+01    0.20410E-03   -0.19286E-04  8838   0.114E-02    0.293E-02
RMM:  15    -0.963095567354E+01   -0.79577E-05   -0.51929E-05  8021   0.599E-03
  54 F= -.96309557E+01 E0= -.96129428E+01  d E =-.217811E+01  mag=    -0.0001
       N       E                     dE             d eps       ncg     rms          rms(c)
DAV:   1    -0.778918122199E+01    0.18418E+01   -0.21125E+02 10738   0.204E+01    0.360E+00
RMM:   2    -0.110080398114E+02   -0.32189E+01   -0.26402E+01 10288   0.606E+00    0.570E+00
RMM:   3    -0.128703092311E+02   -0.18623E+01   -0.12677E+00 11004   0.103E+00    0.100E+01
RMM:   4    -0.109680275431E+02    0.19023E+01   -0.28674E-01 10051   0.396E-01    0.466E+00
RMM:   5    -0.105909233368E+02    0.37710E+00   -0.27654E-01 10056   0.331E-01    0.340E+00
RMM:   6    -0.101296086076E+02    0.46131E+00   -0.16413E-01 10038   0.288E-01    0.143E+00
RMM:   7    -0.101387707186E+02   -0.91621E-02   -0.10066E-01 10011   0.227E-01    0.168E+00
RMM:   8    -0.100912452077E+02    0.47526E-01   -0.48312E-02 10124   0.185E-01    0.458E-01
RMM:   9    -0.100895325551E+02    0.17127E-02   -0.96494E-03 10132   0.794E-02    0.342E-01
RMM:  10    -0.100881898140E+02    0.13427E-02   -0.45348E-03 10034   0.538E-02    0.260E-01
RMM:  11    -0.100867938530E+02    0.13960E-02   -0.12938E-03  9704   0.299E-02    0.987E-02
RMM:  12    -0.100867728987E+02    0.20954E-04   -0.36273E-04  9409   0.165E-02    0.653E-02
RMM:  13    -0.100867512413E+02    0.21657E-04   -0.17750E-04  8709   0.106E-02    0.528E-02
RMM:  14    -0.100867117946E+02    0.39447E-04   -0.54605E-05  7701   0.635E-03    0.199E-02
RMM:  15    -0.100867167807E+02   -0.49861E-05   -0.18286E-05  6195   0.378E-03
  55 F= -.10086717E+02 E0= -.10060123E+02  d E =-.263387E+01  mag=    -0.0000
       N       E                     dE             d eps       ncg     rms          rms(c)
DAV:   1    -0.621885340197E+01    0.38679E+01   -0.52826E+02 10524   0.323E+01    0.580E+00
RMM:   2    -0.140946274048E+02   -0.78758E+01   -0.68077E+01 10318   0.964E+00    0.870E+00
RMM:   3    -0.165418762721E+02   -0.24472E+01   -0.34307E+00 10909   0.168E+00    0.124E+01
RMM:   4    -0.148268289743E+02    0.17150E+01   -0.59648E-01 10136   0.611E-01    0.778E+00
RMM:   5    -0.130924990140E+02    0.17343E+01   -0.64367E-01 10070   0.505E-01    0.460E+00
RMM:   6    -0.124243741646E+02    0.66812E+00   -0.47624E-01 10042   0.499E-01    0.291E+00
RMM:   7    -0.123478026979E+02    0.76571E-01   -0.32700E-01 10167   0.426E-01    0.244E+00
RMM:   8    -0.122335161779E+02    0.11429E+00   -0.12687E-01 10288   0.295E-01    0.117E+00
RMM:   9    -0.122247037336E+02    0.88124E-02   -0.31901E-02 10253   0.142E-01    0.655E-01
RMM:  10    -0.122216311351E+02    0.30726E-02   -0.15683E-02 10020   0.102E-01    0.485E-01
RMM:  11    -0.122171144607E+02    0.45167E-02   -0.53086E-03  9840   0.611E-02    0.227E-01
RMM:  12    -0.122168900008E+02    0.22446E-03   -0.14335E-03  9850   0.308E-02    0.141E-01
RMM:  13    -0.122164625023E+02    0.42750E-03   -0.61905E-04  9726   0.203E-02    0.657E-02
RMM:  14    -0.122164199131E+02    0.42589E-04   -0.14727E-04  8690   0.959E-03    0.460E-02
RMM:  15    -0.122163972093E+02    0.22704E-04   -0.56915E-05  7691   0.619E-03    0.199E-02
RMM:  16    -0.122164120488E+02   -0.14839E-04   -0.15367E-05  5884   0.372E-03    0.134E-02
RMM:  17    -0.122164162409E+02   -0.41921E-05   -0.70776E-06  4796   0.263E-03
  56 F= -.12216416E+02 E0= -.12191887E+02  d E =-.212970E+01  mag=    -0.0000
       N       E                     dE             d eps       ncg     rms          rms(c)
DAV:   1    -0.541292255024E+01    0.68035E+01   -0.66768E+02 10436   0.364E+01    0.633E+00
RMM:   2    -0.159507661460E+02   -0.10538E+02   -0.88471E+01 10311   0.109E+01    0.104E+01
RMM:   3    -0.151323271147E+02    0.81844E+00   -0.48249E+00 10786   0.199E+00    0.763E+00
RMM:   4    -0.137778450053E+02    0.13545E+01   -0.94363E-01 10162   0.790E-01    0.391E+00
RMM:   5    -0.139853827164E+02   -0.20754E+00   -0.57902E-01 10174   0.572E-01    0.455E+00
RMM:   6    -0.187494545195E+02   -0.47641E+01   -0.33018E-01  9982   0.357E-01    0.126E+01
RMM:   7    -0.134875428949E+02    0.52619E+01   -0.34404E-01  9955   0.432E-01    0.269E+00
RMM:   8    -0.133700743367E+02    0.11747E+00   -0.16460E-01 10255   0.317E-01    0.122E+00
RMM:   9    -0.133566798333E+02    0.13395E-01   -0.38475E-02 10257   0.148E-01    0.677E-01
RMM:  10    -0.133513592705E+02    0.53206E-02   -0.14722E-02 10140   0.969E-02    0.508E-01
RMM:  11    -0.133477247725E+02    0.36345E-02   -0.51727E-03 10051   0.601E-02    0.289E-01
RMM:  12    -0.133475108834E+02    0.21389E-03   -0.21061E-03 10058   0.379E-02    0.220E-01
RMM:  13    -0.133467790133E+02    0.73187E-03   -0.80575E-04  9277   0.233E-02    0.771E-02
RMM:  14    -0.133468003611E+02   -0.21348E-04   -0.34026E-04  9537   0.144E-02    0.729E-02
RMM:  15    -0.133467098167E+02    0.90544E-04   -0.11489E-04  8204   0.888E-03    0.281E-02
RMM:  16    -0.133467162866E+02   -0.64699E-05   -0.38106E-05  7753   0.510E-03
  57 F= -.13346716E+02 E0= -.13334019E+02  d E =-.326000E+01  mag=    -0.0000
       N       E                     dE             d eps       ncg     rms          rms(c)
DAV:   1    -0.116380707119E+02    0.17086E+01   -0.35441E+02 10110   0.260E+01    0.441E+00
RMM:   2    -0.171490049269E+02   -0.55109E+01   -0.42237E+01 10312   0.759E+00    0.735E+00
RMM:   3    -0.175026857394E+02   -0.35368E+00   -0.23813E+00 10774   0.135E+00    0.669E+00
RMM:   4    -0.190383112165E+02   -0.15356E+01   -0.46909E-01 10314   0.493E-01    0.113E+01
RMM:   5    -0.156033519854E+02    0.34350E+01   -0.43513E-01  9978   0.450E-01    0.263E+00
RMM:   6    -0.154687618145E+02    0.13459E+00   -0.21974E-01 10041   0.351E-01    0.188E+00
RMM:   7    -0.154459417390E+02    0.22820E-01   -0.10400E-01 10067   0.229E-01    0.154E+00
RMM:   8    -0.154015977499E+02    0.44344E-01   -0.52776E-02 10083   0.184E-01    0.687E-01
RMM:   9    -0.153998923795E+02    0.17054E-02   -0.18946E-02 10207   0.108E-01    0.536E-01
RMM:  10    -0.153931774567E+02    0.67149E-02   -0.75152E-03 10059   0.706E-02    0.213E-01
RMM:  11    -0.153933411581E+02   -0.16370E-03   -0.27047E-03 10151   0.414E-02    0.199E-01
RMM:  12    -0.153926166648E+02    0.72449E-03   -0.87964E-04  9493   0.237E-02    0.776E-02
RMM:  13    -0.153925350779E+02    0.81587E-04   -0.36311E-04  9451   0.151E-02    0.588E-02
RMM:  14    -0.153924886065E+02    0.46471E-04   -0.87774E-05  8080   0.802E-03    0.320E-02
RMM:  15    -0.153924830028E+02    0.56038E-05   -0.27082E-05  7162   0.463E-03
  58 F= -.15392483E+02 E0= -.15384357E+02  d E =-.204577E+01  mag=    -0.0000
       N       E                     dE             d eps       ncg     rms          rms(c)
DAV:   1    -0.104378459507E+02    0.49546E+01   -0.57202E+02 10010   0.332E+01    0.560E+00
RMM:   2    -0.199229951885E+02   -0.94851E+01   -0.71635E+01 10280   0.980E+00    0.100E+01
RMM:   3    -0.182015037828E+02    0.17215E+01   -0.40125E+00 10646   0.181E+00    0.616E+00
RMM:   4    -0.188641803116E+02   -0.66268E+00   -0.83490E-01 10220   0.718E-01    0.826E+00
RMM:   5    -0.174100437183E+02    0.14541E+01   -0.23661E-01 10630   0.336E-01    0.406E+00
RMM:   6    -0.167802038747E+02    0.62984E+00   -0.34927E-01  9968   0.415E-01    0.211E+00
RMM:   7    -0.167586075796E+02    0.21596E-01   -0.13884E-01 10254   0.278E-01    0.171E+00
RMM:   8    -0.167167155810E+02    0.41892E-01   -0.64297E-02 10135   0.205E-01    0.842E-01
RMM:   9    -0.167120099282E+02    0.47057E-02   -0.33181E-02 10124   0.136E-01    0.761E-01
RMM:  10    -0.166990856736E+02    0.12924E-01   -0.92930E-03 10178   0.793E-02    0.278E-01
RMM:  11    -0.166997019400E+02   -0.61627E-03   -0.57761E-03 10299   0.582E-02    0.282E-01
RMM:  12    -0.166981414398E+02    0.15605E-02   -0.14780E-03  9624   0.308E-02    0.105E-01
RMM:  13    -0.166979530782E+02    0.18836E-03   -0.47296E-04  9475   0.178E-02    0.619E-02
RMM:  14    -0.166979416858E+02    0.11392E-04   -0.16462E-04  9020   0.981E-03    0.482E-02
RMM:  15    -0.166979184915E+02    0.23194E-04   -0.60906E-05  7937   0.670E-03    0.209E-02
RMM:  16    -0.166979202707E+02   -0.17793E-05   -0.18241E-05  6242   0.384E-03
  59 F= -.16697920E+02 E0= -.16695061E+02  d E =-.335120E+01  mag=    -0.0000
       N       E                     dE             d eps       ncg     rms          rms(c)
DAV:   1    -0.158323045501E+02    0.86561E+00   -0.35171E+02  9734   0.253E+01    0.474E+00
RMM:   2    -0.198085098285E+02   -0.39762E+01   -0.37796E+01 10295   0.718E+00    0.539E+00
RMM:   3    -0.208902268834E+02   -0.10817E+01   -0.22427E+00 10798   0.130E+00    0.685E+00
RMM:   4    -0.194988481242E+02    0.13914E+01   -0.63555E-01 10011   0.592E-01    0.420E+00
RMM:   5    -0.200021695646E+02   -0.50332E+00   -0.17496E-01 10609   0.281E-01    0.467E+00
RMM:   6    -0.190142800000E+02    0.98789E+00   -0.22180E-01  9910   0.329E-01    0.192E+00
RMM:   7    -0.189645824914E+02    0.49698E-01   -0.83774E-02 10246   0.217E-01    0.121E+00
RMM:   8    -0.189439098349E+02    0.20673E-01   -0.33305E-02 10025   0.147E-01    0.560E-01
RMM:   9    -0.189426304114E+02    0.12794E-02   -0.17155E-02 10177   0.973E-02    0.493E-01
RMM:  10    -0.189386749689E+02    0.39554E-02   -0.51215E-03 10178   0.560E-02    0.300E-01
RMM:  11    -0.189371588014E+02    0.15162E-02   -0.23031E-03  9882   0.398E-02    0.145E-01
RMM:  12    -0.189371056487E+02    0.53153E-04   -0.73687E-04  9871   0.226E-02    0.931E-02
RMM:  13    -0.189369062937E+02    0.19935E-03   -0.28832E-04  9251   0.141E-02    0.534E-02
RMM:  14    -0.189368811804E+02    0.25113E-04   -0.92097E-05  8296   0.770E-03    0.352E-02
RMM:  15    -0.189368791240E+02    0.20564E-05   -0.47603E-05  8152   0.568E-03
  60 F= -.18936879E+02 E0= -.18936531E+02  d E =-.223896E+01  mag=    -0.0000
       N       E                     dE             d eps       ncg     rms          rms(c)
DAV:   1    -0.180911029326E+02    0.84578E+00   -0.16395E+02  9712   0.172E+01    0.318E+00
RMM:   2    -0.201633199093E+02   -0.20722E+01   -0.16739E+01 10289   0.482E+00    0.438E+00
RMM:   3    -0.209003901084E+02   -0.73707E+00   -0.90799E-01 11071   0.814E-01    0.555E+00
RMM:   4    -0.209604566565E+02   -0.60067E-01   -0.30866E-01 10056   0.367E-01    0.685E+00
RMM:   5    -0.195526990835E+02    0.14078E+01   -0.23845E-01  9964   0.330E-01    0.151E+00
RMM:   6    -0.195266413745E+02    0.26058E-01   -0.10781E-01 10019   0.247E-01    0.142E+00
RMM:   7    -0.195034374891E+02    0.23204E-01   -0.43645E-02 10106   0.155E-01    0.902E-01
RMM:   8    -0.194882731373E+02    0.15164E-01   -0.18698E-02 10092   0.105E-01    0.480E-01
RMM:   9    -0.194843602604E+02    0.39129E-02   -0.75989E-03 10087   0.672E-02    0.298E-01
RMM:  10    -0.194829306016E+02    0.14297E-02   -0.28543E-03  9942   0.425E-02    0.173E-01
RMM:  11    -0.194825526013E+02    0.37800E-03   -0.11539E-03  9965   0.274E-02    0.980E-02
RMM:  12    -0.194823864198E+02    0.16618E-03   -0.27828E-04  9367   0.140E-02    0.370E-02
RMM:  13    -0.194824002655E+02   -0.13846E-04   -0.11178E-04  9039   0.878E-03    0.369E-02
RMM:  14    -0.194823783664E+02    0.21899E-04   -0.44791E-05  7664   0.602E-03    0.194E-02
RMM:  15    -0.194823760998E+02    0.22666E-05   -0.13149E-05  5625   0.334E-03
  61 F= -.19482376E+02 E0= -.19482375E+02  d E =-.278446E+01  mag=    -0.0000
       N       E                     dE             d eps       ncg     rms          rms(c)
DAV:   1    -0.187820608828E+02    0.70032E+00   -0.29370E+02  9452   0.230E+01    0.429E+00
RMM:   2    -0.226849253897E+02   -0.39029E+01   -0.29216E+01 10259   0.637E+00    0.695E+00
RMM:   3    -0.232419681375E+02   -0.55704E+00   -0.15168E+00 11278   0.108E+00    0.686E+00
RMM:   4    -0.227397422937E+02    0.50223E+00   -0.64798E-01 10012   0.547E-01    0.663E+00
RMM:   5    -0.213949683972E+02    0.13448E+01   -0.35388E-01 10023   0.396E-01    0.251E+00
RMM:   6    -0.212283357284E+02    0.16663E+00   -0.18055E-01 10059   0.320E-01    0.162E+00
RMM:   7    -0.211836756307E+02    0.44660E-01   -0.78989E-02 10081   0.211E-01    0.118E+00
RMM:   8    -0.211613889001E+02    0.22287E-01   -0.34547E-02 10195   0.145E-01    0.651E-01
RMM:   9    -0.211546403137E+02    0.67486E-02   -0.14132E-02  9935   0.954E-02    0.392E-01
RMM:  10    -0.211532265917E+02    0.14137E-02   -0.57291E-03 10032   0.602E-02    0.290E-01
RMM:  11    -0.211520451042E+02    0.11815E-02   -0.22614E-03  9863   0.379E-02    0.111E-01
RMM:  12    -0.211518703657E+02    0.17474E-03   -0.72264E-04  9805   0.220E-02    0.744E-02
RMM:  13    -0.211518620206E+02    0.83451E-05   -0.25596E-04  8976   0.125E-02    0.662E-02
RMM:  14    -0.211517879025E+02    0.74118E-04   -0.10034E-04  8278   0.866E-03    0.198E-02
RMM:  15    -0.211517893658E+02   -0.14633E-05   -0.25814E-05  6892   0.415E-03
  62 F= -.21151789E+02 E0= -.21152607E+02  d E =-.166941E+01  mag=    -0.0000
       N       E                     dE             d eps       ncg     rms          rms(c)
DAV:   1    -0.206094830881E+02    0.54230E+00   -0.11070E+02  9524   0.141E+01    0.261E+00
RMM:   2    -0.224442517650E+02   -0.18348E+01   -0.10761E+01 10272   0.388E+00    0.548E+00
RMM:   3    -0.219325532355E+02    0.51170E+00   -0.53075E-01 11404   0.631E-01    0.320E+00
RMM:   4    -0.220247983006E+02   -0.92245E-01   -0.23265E-01 10027   0.332E-01    0.389E+00
RMM:   5    -0.215749579459E+02    0.44984E+00   -0.12255E-01  9948   0.227E-01    0.154E+00
RMM:   6    -0.215175137278E+02    0.57444E-01   -0.65075E-02 10053   0.193E-01    0.101E+00
RMM:   7    -0.215031039172E+02    0.14410E-01   -0.33890E-02 10016   0.134E-01    0.779E-01
RMM:   8    -0.214909812417E+02    0.12123E-01   -0.14088E-02 10093   0.907E-02    0.367E-01
RMM:   9    -0.214887026905E+02    0.22786E-02   -0.46017E-03 10008   0.551E-02    0.219E-01
RMM:  10    -0.214882365316E+02    0.46616E-03   -0.17683E-03  9933   0.338E-02    0.153E-01
RMM:  11    -0.214878736378E+02    0.36289E-03   -0.59964E-04  9477   0.201E-02    0.553E-02
RMM:  12    -0.214878467969E+02    0.26841E-04   -0.16282E-04  9117   0.108E-02    0.434E-02
RMM:  13    -0.214878297870E+02    0.17010E-04   -0.72136E-05  8049   0.679E-03    0.325E-02
RMM:  14    -0.214878140467E+02    0.15740E-04   -0.26075E-05  7056   0.454E-03    0.102E-02
RMM:  15    -0.214878169676E+02   -0.29209E-05   -0.12153E-05  5459   0.302E-03
  63 F= -.21487817E+02 E0= -.21490547E+02  d E =-.200544E+01  mag=    -0.0000
       N       E                     dE             d eps       ncg     rms          rms(c)
DAV:   1    -0.222177487943E+02   -0.72993E+00   -0.59711E+01  9150   0.101E+01    0.198E+00
RMM:   2    -0.230461376361E+02   -0.82839E+00   -0.52312E+00 10243   0.271E+00    0.392E+00
RMM:   3    -0.229394709165E+02    0.10667E+00   -0.26470E-01 11427   0.450E-01    0.283E+00
