       N       E                     dE             d eps       ncg     rms          rms(c)
DAV:   1     0.609806608133E+04    0.60981E+04   -0.25926E+05  9632   0.124E+03
DAV:   2     0.205142328225E+03   -0.58929E+04   -0.54618E+04  9488   0.676E+02
DAV:   3    -0.465041069894E+03   -0.67018E+03   -0.60460E+03  9568   0.331E+02
DAV:   4    -0.579190327073E+03   -0.11415E+03   -0.10708E+03 10872   0.114E+02
DAV:   5    -0.590842889131E+03   -0.11653E+02   -0.11179E+02 10328   0.219E+01    0.119E+02
RMM:   6    -0.640922163746E+03   -0.50079E+02   -0.29247E+02  8774   0.373E+01    0.563E+01
RMM:   7    -0.101383538705E+04   -0.37291E+03   -0.38144E+02  9042   0.403E+01    0.732E+01
RMM:   8    -0.886307763350E+03    0.12753E+03   -0.19776E+02  7588   0.467E+01    0.657E+01
RMM:   9    -0.555023194115E+03    0.33128E+03   -0.40588E+01  7530   0.240E+01    0.390E+01
RMM:  10    -0.537826568034E+03    0.17197E+02   -0.17683E+01  7520   0.137E+01    0.187E+01
RMM:  11    -0.535893138527E+03    0.19334E+01   -0.16042E+01  8613   0.410E+00    0.139E+01
RMM:  12    -0.536086447956E+03   -0.19331E+00   -0.28631E+00  7954   0.429E+00    0.124E+01
RMM:  13    -0.536653445743E+03   -0.56700E+00   -0.68496E+00  8568   0.350E+00    0.110E+01
RMM:  14    -0.535305809843E+03    0.13476E+01   -0.37681E+00  7826   0.486E+00    0.641E+00
RMM:  15    -0.534225018596E+03    0.10808E+01   -0.73392E+00  8354   0.292E+00    0.627E+00
RMM:  16    -0.533855348427E+03    0.36967E+00   -0.17252E+00  7973   0.334E+00    0.573E+00
RMM:  17    -0.531466603400E+03    0.23887E+01   -0.29421E+00  8151   0.237E+00    0.418E+00
RMM:  18    -0.532450678465E+03   -0.98408E+00   -0.88447E-01  8135   0.152E+00    0.347E+00
RMM:  19    -0.532770519650E+03   -0.31984E+00   -0.71966E-01  8124   0.120E+00    0.309E+00
RMM:  20    -0.535308972174E+03   -0.25385E+01   -0.12478E+00  8040   0.161E+00    0.259E+00
RMM:  21    -0.536890949285E+03   -0.15820E+01   -0.84880E-01  8102   0.122E+00    0.196E+00
RMM:  22    -0.538637876301E+03   -0.17469E+01   -0.76395E-01  8017   0.105E+00    0.158E+00
RMM:  23    -0.541395885246E+03   -0.27580E+01   -0.16764E+00  8020   0.133E+00    0.121E+00
RMM:  24    -0.544117529228E+03   -0.27216E+01   -0.21755E+00  8018   0.121E+00    0.983E-01
RMM:  25    -0.546357291442E+03   -0.22398E+01   -0.17611E+00  8020   0.145E+00    0.918E-01
RMM:  26    -0.547544892795E+03   -0.11876E+01   -0.15210E+00  8166   0.673E-01    0.730E-01
RMM:  27    -0.548579309882E+03   -0.10344E+01   -0.79664E-01  7964   0.814E-01    0.727E-01
RMM:  28    -0.549297658481E+03   -0.71835E+00   -0.89203E-01  8232   0.524E-01    0.624E-01
RMM:  29    -0.549752553301E+03   -0.45489E+00   -0.32423E-01  7972   0.562E-01    0.464E-01
RMM:  30    -0.550421690784E+03   -0.66914E+00   -0.44478E-01  8161   0.436E-01    0.391E-01
RMM:  31    -0.550873992871E+03   -0.45230E+00   -0.14295E-01  7837   0.421E-01    0.297E-01
RMM:  32    -0.551201475003E+03   -0.32748E+00   -0.11299E-01  7793   0.261E-01    0.236E-01
RMM:  33    -0.551532473905E+03   -0.33100E+00   -0.57984E-02  7427   0.279E-01    0.195E-01
RMM:  34    -0.551674826812E+03   -0.14235E+00   -0.41824E-02  7145   0.148E-01    0.153E-01
RMM:  35    -0.551743340210E+03   -0.68513E-01   -0.21031E-02  6637   0.127E-01    0.121E-01
RMM:  36    -0.551781238413E+03   -0.37898E-01   -0.10691E-02  6592   0.116E-01    0.951E-02
RMM:  37    -0.551805813871E+03   -0.24575E-01   -0.98738E-03  6318   0.893E-02    0.825E-02
RMM:  38    -0.551819214775E+03   -0.13401E-01   -0.53446E-03  6271   0.806E-02    0.744E-02
RMM:  39    -0.551833425060E+03   -0.14210E-01   -0.46088E-03  6513   0.832E-02    0.697E-02
RMM:  40    -0.551842620782E+03   -0.91957E-02   -0.39452E-03  6618   0.682E-02    0.598E-02
RMM:  41    -0.551850281424E+03   -0.76606E-02   -0.27040E-03  6232   0.724E-02    0.424E-02
RMM:  42    -0.551853115519E+03   -0.28341E-02   -0.13384E-03  6122   0.577E-02    0.267E-02
RMM:  43    -0.551856887143E+03   -0.37716E-02   -0.79806E-04  5725   0.522E-02    0.186E-02
RMM:  44    -0.551858950381E+03   -0.20632E-02   -0.35302E-04  4927   0.506E-02    0.175E-02
RMM:  45    -0.551860013885E+03   -0.10635E-02   -0.13679E-04  4571   0.468E-02    0.123E-02
RMM:  46    -0.551860290615E+03   -0.27673E-03   -0.49437E-05  4291   0.503E-02    0.166E-02
RMM:  47    -0.551860401560E+03   -0.11095E-03   -0.25457E-05  4215   0.527E-02    0.102E-02
RMM:  48    -0.551860441515E+03   -0.39955E-04   -0.23174E-05  4352   0.544E-02    0.101E-02
RMM:  49    -0.551860478265E+03   -0.36750E-04   -0.23892E-05  4512   0.477E-02    0.713E-03
RMM:  50    -0.551860497932E+03   -0.19667E-04   -0.18957E-05  4267   0.411E-02    0.693E-03
RMM:  51    -0.551860511609E+03   -0.13678E-04   -0.10569E-05  4071   0.399E-02    0.572E-03
RMM:  52    -0.551860534761E+03   -0.23152E-04   -0.95614E-06  4078   0.413E-02    0.425E-03
RMM:  53    -0.551860550893E+03   -0.16132E-04   -0.66725E-06  4041   0.398E-02    0.655E-03
RMM:  54    -0.551860557131E+03   -0.62378E-05   -0.49762E-06  3968   0.408E-02
   1 F= -.55186056E+03 E0= -.55183928E+03  d E =-.551861E+03  mag=     0.0082
       N       E                     dE             d eps       ncg     rms          rms(c)
DAV:   1    -0.552069395678E+03   -0.20884E+00   -0.13587E+01  7856   0.101E+01    0.102E+00
RMM:   2    -0.552231095710E+03   -0.16170E+00   -0.14585E+00  8469   0.370E+00    0.139E+00
RMM:   3    -0.552223187881E+03    0.79078E-02   -0.16316E-01  7637   0.138E+00    0.712E-01
RMM:   4    -0.552224250791E+03   -0.10629E-02   -0.41674E-02  8217   0.443E-01    0.668E-01
RMM:   5    -0.552236226883E+03   -0.11976E-01   -0.10763E-02  7914   0.250E-01    0.736E-01
RMM:   6    -0.552220900002E+03    0.15327E-01   -0.92989E-03  7987   0.136E-01    0.435E-01
RMM:   7    -0.552220778665E+03    0.12134E-03   -0.47285E-03  7515   0.220E-01    0.171E-01
RMM:   8    -0.552219898269E+03    0.88040E-03   -0.14900E-03  6724   0.109E-01    0.112E-01
RMM:   9    -0.552219921749E+03   -0.23480E-04   -0.67408E-04  5819   0.592E-02    0.654E-02
RMM:  10    -0.552219885594E+03    0.36155E-04   -0.36921E-04  5595   0.534E-02    0.575E-02
RMM:  11    -0.552219884172E+03    0.14215E-05   -0.18792E-04  5456   0.581E-02    0.295E-02
RMM:  12    -0.552219893713E+03   -0.95407E-05   -0.10551E-04  4692   0.575E-02    0.253E-02
RMM:  13    -0.552219900005E+03   -0.62921E-05   -0.43915E-05  4228   0.508E-02
   2 F= -.55221990E+03 E0= -.55220004E+03  d E =-.359343E+00  mag=     0.0071
       N       E                     dE             d eps       ncg     rms          rms(c)
DAV:   1    -0.551763002465E+03    0.45689E+00   -0.12237E+02  7292   0.303E+01    0.315E+00
RMM:   2    -0.553219486188E+03   -0.14565E+01   -0.13140E+01  8433   0.114E+01    0.468E+00
RMM:   3    -0.553202367322E+03    0.17119E-01   -0.14664E+00  7511   0.471E+00    0.241E+00
RMM:   4    -0.553558403606E+03   -0.35604E+00   -0.56945E-01  8531   0.134E+00    0.370E+00
RMM:   5    -0.553151942096E+03    0.40646E+00   -0.90373E-02  7346   0.123E+00    0.182E+00
RMM:   6    -0.553126097428E+03    0.25845E-01   -0.93409E-02  8294   0.457E-01    0.127E+00
RMM:   7    -0.553127588242E+03   -0.14908E-02   -0.53486E-02  8070   0.530E-01    0.534E-01
RMM:   8    -0.553119701137E+03    0.78871E-02   -0.14975E-02  7811   0.332E-01    0.523E-01
RMM:   9    -0.553119380686E+03    0.32045E-03   -0.82559E-03  7967   0.141E-01    0.297E-01
RMM:  10    -0.553119160941E+03    0.21975E-03   -0.41058E-03  7362   0.104E-01    0.259E-01
RMM:  11    -0.553119253229E+03   -0.92287E-04   -0.15241E-03  6892   0.881E-02    0.163E-01
RMM:  12    -0.553119385761E+03   -0.13253E-03   -0.10450E-03  6789   0.616E-02    0.110E-01
RMM:  13    -0.553119466803E+03   -0.81042E-04   -0.38957E-04  5484   0.680E-02    0.501E-02
RMM:  14    -0.553119528773E+03   -0.61970E-04   -0.24089E-04  4950   0.489E-02    0.481E-02
RMM:  15    -0.553119569111E+03   -0.40338E-04   -0.91768E-05  4571   0.588E-02    0.221E-02
RMM:  16    -0.553119605225E+03   -0.36115E-04   -0.46608E-05  4257   0.540E-02    0.255E-02
RMM:  17    -0.553119631635E+03   -0.26409E-04   -0.29152E-05  4219   0.564E-02    0.944E-03
RMM:  18    -0.553119645537E+03   -0.13902E-04   -0.31719E-05  4403   0.546E-02    0.976E-03
RMM:  19    -0.553119656943E+03   -0.11406E-04   -0.21972E-05  4280   0.487E-02    0.742E-03
RMM:  20    -0.553119665975E+03   -0.90322E-05   -0.23431E-05  4257   0.466E-02
   3 F= -.55311967E+03 E0= -.55310512E+03  d E =-.125911E+01  mag=     0.0047
       N       E                     dE             d eps       ncg     rms          rms(c)
DAV:   1    -0.548352839078E+03    0.47668E+01   -0.49299E+02  7376   0.613E+01    0.726E+00
RMM:   2    -0.554455402861E+03   -0.61026E+01   -0.54088E+01  8311   0.262E+01    0.104E+01
RMM:   3    -0.555464056374E+03   -0.10087E+01   -0.76842E+00  7408   0.109E+01    0.659E+00
RMM:   4    -0.555731987280E+03   -0.26793E+00   -0.30300E+00  8607   0.315E+00    0.713E+00
RMM:   5    -0.554314259804E+03    0.14177E+01   -0.46293E-01  7386   0.305E+00    0.400E+00
RMM:   6    -0.554095144766E+03    0.21912E+00   -0.41774E-01  8288   0.111E+00    0.253E+00
RMM:   7    -0.554100110162E+03   -0.49654E-02   -0.21093E-01  8138   0.910E-01    0.119E+00
RMM:   8    -0.554071790224E+03    0.28320E-01   -0.86349E-02  7958   0.728E-01    0.127E+00
RMM:   9    -0.554068535619E+03    0.32546E-02   -0.33451E-02  8284   0.296E-01    0.662E-01
RMM:  10    -0.554068371128E+03    0.16449E-03   -0.18183E-02  8347   0.186E-01    0.453E-01
RMM:  11    -0.554068745135E+03   -0.37401E-03   -0.54150E-03  7565   0.148E-01    0.293E-01
RMM:  12    -0.554069275332E+03   -0.53020E-03   -0.43902E-03  7582   0.859E-02    0.178E-01
RMM:  13    -0.554069577773E+03   -0.30244E-03   -0.13517E-03  7072   0.899E-02    0.754E-02
RMM:  14    -0.554069784725E+03   -0.20695E-03   -0.10770E-03  5911   0.513E-02    0.515E-02
RMM:  15    -0.554069914219E+03   -0.12949E-03   -0.31160E-04  4679   0.569E-02    0.211E-02
RMM:  16    -0.554069987938E+03   -0.73719E-04   -0.20226E-04  4785   0.624E-02    0.158E-02
RMM:  17    -0.554070020090E+03   -0.32152E-04   -0.85090E-05  4495   0.569E-02    0.191E-02
RMM:  18    -0.554070046453E+03   -0.26364E-04   -0.63900E-05  4436   0.534E-02    0.129E-02
RMM:  19    -0.554070112988E+03   -0.66534E-04   -0.43293E-05  4460   0.525E-02    0.167E-02
RMM:  20    -0.554070151432E+03   -0.38444E-04   -0.34298E-05  4506   0.526E-02    0.495E-03
RMM:  21    -0.554070169206E+03   -0.17774E-04   -0.29062E-05  4389   0.446E-02    0.459E-03
RMM:  22    -0.554070187816E+03   -0.18610E-04   -0.18529E-05  4007   0.353E-02    0.740E-03
RMM:  23    -0.554070195224E+03   -0.74081E-05   -0.10606E-05  3926   0.397E-02
   4 F= -.55407020E+03 E0= -.55406720E+03  d E =-.220964E+01  mag=     0.0025
       N       E                     dE             d eps       ncg     rms          rms(c)
DAV:   1    -0.553735914739E+03    0.33427E+00   -0.33625E+01  7368   0.161E+01    0.171E+00
RMM:   2    -0.554156707898E+03   -0.42079E+00   -0.36066E+00  8440   0.616E+00    0.265E+00
RMM:   3    -0.554174575422E+03   -0.17868E-01   -0.40945E-01  7617   0.242E+00    0.162E+00
RMM:   4    -0.554166178727E+03    0.83967E-02   -0.16116E-01  8567   0.678E-01    0.166E+00
RMM:   5    -0.554114119893E+03    0.52059E-01   -0.23171E-02  7557   0.568E-01    0.106E+00
RMM:   6    -0.554106815468E+03    0.73044E-02   -0.21491E-02  8220   0.245E-01    0.738E-01
RMM:   7    -0.554107586321E+03   -0.77085E-03   -0.14601E-02  7998   0.287E-01    0.273E-01
RMM:   8    -0.554105111296E+03    0.24750E-02   -0.32721E-03  7511   0.176E-01    0.265E-01
RMM:   9    -0.554105255508E+03   -0.14421E-03   -0.24808E-03  6845   0.663E-02    0.164E-01
RMM:  10    -0.554105153326E+03    0.10218E-03   -0.62413E-04  6193   0.759E-02    0.125E-01
RMM:  11    -0.554105201281E+03   -0.47955E-04   -0.54932E-04  5980   0.554E-02    0.751E-02
RMM:  12    -0.554105228966E+03   -0.27685E-04   -0.15397E-04  4731   0.603E-02    0.721E-02
RMM:  13    -0.554105256326E+03   -0.27360E-04   -0.83350E-05  4709   0.560E-02    0.307E-02
RMM:  14    -0.554105274457E+03   -0.18131E-04   -0.55962E-05  4377   0.654E-02    0.192E-02
RMM:  15    -0.554105286944E+03   -0.12487E-04   -0.46675E-05  4268   0.575E-02    0.142E-02
RMM:  16    -0.554105296550E+03   -0.96055E-05   -0.34284E-05  4356   0.599E-02
   5 F= -.55410530E+03 E0= -.55410591E+03  d E =-.224474E+01  mag=     0.0017
       N       E                     dE             d eps       ncg     rms          rms(c)
DAV:   1    -0.553629485065E+03    0.47580E+00   -0.43477E+01  8000   0.269E+01    0.237E+00
RMM:   2    -0.554391664450E+03   -0.76218E+00   -0.72384E+00  8711   0.810E+00    0.344E+00
RMM:   3    -0.554566738627E+03   -0.17507E+00   -0.71799E-01  7312   0.394E+00    0.219E+00
RMM:   4    -0.554509558545E+03    0.57180E-01   -0.25283E-01  8491   0.112E+00    0.197E+00
RMM:   5    -0.554381579104E+03    0.12798E+00   -0.90587E-02  7949   0.735E-01    0.116E+00
RMM:   6    -0.554353100274E+03    0.28479E-01   -0.29212E-02  8056   0.366E-01    0.663E-01
RMM:   7    -0.554353126970E+03   -0.26696E-04   -0.18597E-02  7935   0.339E-01    0.345E-01
RMM:   8    -0.554353061221E+03    0.65748E-04   -0.75191E-03  8150   0.172E-01    0.373E-01
RMM:   9    -0.554352805205E+03    0.25602E-03   -0.24825E-03  6777   0.120E-01    0.202E-01
RMM:  10    -0.554352738825E+03    0.66381E-04   -0.14279E-03  6855   0.756E-02    0.187E-01
RMM:  11    -0.554352733794E+03    0.50303E-05   -0.49862E-04  6228   0.767E-02    0.123E-01
RMM:  12    -0.554352752329E+03   -0.18534E-04   -0.35437E-04  5565   0.555E-02    0.119E-01
RMM:  13    -0.554352756865E+03   -0.45362E-05   -0.12289E-04  4588   0.544E-02    0.530E-02
RMM:  14    -0.554352757374E+03   -0.50924E-06   -0.60429E-05  4479   0.645E-02
   6 F= -.55435276E+03 E0= -.55435298E+03  d E =-.247461E+00  mag=     0.0011
       N       E                     dE             d eps       ncg     rms          rms(c)
DAV:   1    -0.551787402962E+03    0.25654E+01   -0.16936E+02  7984   0.533E+01    0.490E+00
RMM:   2    -0.554723113983E+03   -0.29357E+01   -0.28076E+01  8693   0.163E+01    0.818E+00
RMM:   3    -0.555192789735E+03   -0.46968E+00   -0.28859E+00  7261   0.882E+00    0.376E+00
RMM:   4    -0.555693360936E+03   -0.50057E+00   -0.10550E+00  8509   0.231E+00    0.512E+00
RMM:   5    -0.554672975105E+03    0.10204E+01   -0.33664E-01  7770   0.183E+00    0.214E+00
RMM:   6    -0.554608410482E+03    0.64565E-01   -0.15816E-01  8240   0.694E-01    0.140E+00
RMM:   7    -0.554605428455E+03    0.29820E-02   -0.58559E-02  8020   0.526E-01    0.990E-01
RMM:   8    -0.554606105784E+03   -0.67733E-03   -0.38192E-02  8171   0.418E-01    0.956E-01
RMM:   9    -0.554603973377E+03    0.21324E-02   -0.11692E-02  7812   0.282E-01    0.506E-01
RMM:  10    -0.554603980866E+03   -0.74894E-05   -0.73063E-03  7653   0.118E-01    0.532E-01
RMM:  11    -0.554603737819E+03    0.24305E-03   -0.21426E-03  6928   0.154E-01    0.326E-01
RMM:  12    -0.554603877140E+03   -0.13932E-03   -0.26553E-03  7294   0.769E-02    0.225E-01
RMM:  13    -0.554603874920E+03    0.22207E-05   -0.35842E-04  5460   0.904E-02    0.192E-01
RMM:  14    -0.554603916801E+03   -0.41882E-04   -0.53854E-04  5477   0.585E-02    0.109E-01
RMM:  15    -0.554603931353E+03   -0.14552E-04   -0.16621E-04  4601   0.636E-02    0.124E-01
RMM:  16    -0.554603940036E+03   -0.86827E-05   -0.82576E-05  4414   0.588E-02
   7 F= -.55460394E+03 E0= -.55460149E+03  d E =-.498643E+00  mag=     0.0006
       N       E                     dE             d eps       ncg     rms          rms(c)
DAV:   1    -0.554345952126E+03    0.25798E+00   -0.16487E+01  8112   0.166E+01    0.146E+00
RMM:   2    -0.554633087944E+03   -0.28714E+00   -0.27370E+00  8638   0.501E+00    0.210E+00
RMM:   3    -0.554693468086E+03   -0.60380E-01   -0.28501E-01  7374   0.235E+00    0.127E+00
RMM:   4    -0.554690618239E+03    0.28498E-02   -0.99326E-02  8462   0.700E-01    0.131E+00
RMM:   5    -0.554631518933E+03    0.59099E-01   -0.36152E-02  7958   0.463E-01    0.713E-01
RMM:   6    -0.554620094840E+03    0.11424E-01   -0.11598E-02  8074   0.224E-01    0.389E-01
RMM:   7    -0.554620271614E+03   -0.17677E-03   -0.70289E-03  7887   0.212E-01    0.202E-01
RMM:   8    -0.554620240800E+03    0.30814E-04   -0.28878E-03  7694   0.104E-01    0.241E-01
RMM:   9    -0.554620092957E+03    0.14784E-03   -0.94758E-04  6564   0.882E-02    0.119E-01
RMM:  10    -0.554620098824E+03   -0.58672E-05   -0.56837E-04  6107   0.515E-02    0.114E-01
RMM:  11    -0.554620106837E+03   -0.80127E-05   -0.16350E-04  5028   0.545E-02    0.714E-02
RMM:  12    -0.554620111353E+03   -0.45160E-05   -0.10309E-04  4742   0.527E-02    0.820E-02
RMM:  13    -0.554620113300E+03   -0.19475E-05   -0.43977E-05  4130   0.576E-02
   8 F= -.55462011E+03 E0= -.55461649E+03  d E =-.514817E+00  mag=     0.0004
       N       E                     dE             d eps       ncg     rms          rms(c)
DAV:   1    -0.554205335870E+03    0.41478E+00   -0.50915E+01  7556   0.210E+01    0.202E+00
RMM:   2    -0.555110944422E+03   -0.90561E+00   -0.56765E+00  8577   0.764E+00    0.418E+00
RMM:   3    -0.554915127818E+03    0.19582E+00   -0.62908E-01  7403   0.351E+00    0.190E+00
RMM:   4    -0.554814180400E+03    0.10095E+00   -0.14505E-01  8372   0.840E-01    0.109E+00
RMM:   5    -0.554801819588E+03    0.12361E-01   -0.43664E-02  7772   0.587E-01    0.107E+00
RMM:   6    -0.554787536963E+03    0.14283E-01   -0.17908E-02  8176   0.248E-01    0.682E-01
RMM:   7    -0.554787128216E+03    0.40875E-03   -0.64576E-03  7705   0.208E-01    0.367E-01
RMM:   8    -0.554787124516E+03    0.36999E-05   -0.29323E-03  7689   0.962E-02    0.272E-01
RMM:   9    -0.554786971051E+03    0.15346E-03   -0.84839E-04  6677   0.883E-02    0.191E-01
RMM:  10    -0.554786946551E+03    0.24500E-04   -0.66600E-04  6819   0.583E-02    0.135E-01
RMM:  11    -0.554786949189E+03   -0.26384E-05   -0.18611E-04  5207   0.640E-02    0.107E-01
RMM:  12    -0.554786958462E+03   -0.92722E-05   -0.12992E-04  4911   0.528E-02    0.103E-01
RMM:  13    -0.554786960154E+03   -0.16926E-05   -0.49819E-05  4186   0.554E-02
   9 F= -.55478696E+03 E0= -.55478176E+03  d E =-.166847E+00  mag=     0.0003
       N       E                     dE             d eps       ncg     rms          rms(c)
DAV:   1    -0.551063978370E+03    0.37230E+01   -0.34251E+02  7648   0.542E+01    0.578E+00
RMM:   2    -0.556995841675E+03   -0.59319E+01   -0.38419E+01  8547   0.197E+01    0.125E+01
RMM:   3    -0.555943909908E+03    0.10519E+01   -0.45624E+00  7252   0.115E+01    0.503E+00
RMM:   4    -0.555539412327E+03    0.40450E+00   -0.11363E+00  8398   0.241E+00    0.383E+00
RMM:   5    -0.555140371724E+03    0.39904E+00   -0.35008E-01  7747   0.171E+00    0.267E+00
RMM:   6    -0.555075620421E+03    0.64751E-01   -0.17797E-01  8331   0.658E-01    0.185E+00
RMM:   7    -0.555060833301E+03    0.14787E-01   -0.52093E-02  7790   0.668E-01    0.150E+00
RMM:   8    -0.555061184496E+03   -0.35119E-03   -0.33001E-02  8206   0.369E-01    0.749E-01
RMM:   9    -0.555060063499E+03    0.11210E-02   -0.11874E-02  8295   0.201E-01    0.776E-01
RMM:  10    -0.555059845311E+03    0.21819E-03   -0.53204E-03  7822   0.165E-01    0.512E-01
RMM:  11    -0.555059571562E+03    0.27375E-03   -0.39032E-03  7689   0.943E-02    0.458E-01
RMM:  12    -0.555059591776E+03   -0.20213E-04   -0.98445E-04  6282   0.107E-01    0.294E-01
RMM:  13    -0.555059677413E+03   -0.85637E-04   -0.10222E-03  5962   0.524E-02    0.280E-01
RMM:  14    -0.555059696133E+03   -0.18720E-04   -0.25066E-04  5062   0.742E-02    0.150E-01
RMM:  15    -0.555059716154E+03   -0.20021E-04   -0.19295E-04  5053   0.570E-02    0.159E-01
RMM:  16    -0.555059719795E+03   -0.36403E-05   -0.87261E-05  4325   0.517E-02
  10 F= -.55505972E+03 E0= -.55505268E+03  d E =-.439606E+00  mag=     0.0001
       N       E                     dE             d eps       ncg     rms          rms(c)
DAV:   1    -0.537732511522E+03    0.17327E+02   -0.13836E+03  7664   0.112E+02    0.147E+01
RMM:   2    -0.563092150601E+03   -0.25360E+02   -0.16488E+02  8517   0.410E+01    0.281E+01
RMM:   3    -0.560065032785E+03    0.30271E+01   -0.21842E+01  7150   0.269E+01    0.108E+01
RMM:   4    -0.560624638444E+03   -0.55961E+00   -0.55542E+00  8223   0.622E+00    0.110E+01
RMM:   5    -0.555176575997E+03    0.54481E+01   -0.21115E+00  7675   0.473E+00    0.584E+00
RMM:   6    -0.555066275635E+03    0.11030E+00   -0.11851E+00  8134   0.195E+00    0.369E+00
RMM:   7    -0.555005061454E+03    0.61214E-01   -0.41297E-01  8212   0.116E+00    0.309E+00
RMM:   8    -0.554948254383E+03    0.56807E-01   -0.16511E-01  8223   0.773E-01    0.299E+00
RMM:   9    -0.554944076647E+03    0.41777E-02   -0.64751E-02  8120   0.567E-01    0.168E+00
RMM:  10    -0.554945988548E+03   -0.19119E-02   -0.32367E-02  8338   0.317E-01    0.152E+00
RMM:  11    -0.554944363646E+03    0.16249E-02   -0.15360E-02  7811   0.301E-01    0.930E-01
RMM:  12    -0.554945059733E+03   -0.69609E-03   -0.10593E-02  8203   0.139E-01    0.880E-01
RMM:  13    -0.554945409083E+03   -0.34935E-03   -0.36024E-03  6625   0.137E-01    0.680E-01
RMM:  14    -0.554945496894E+03   -0.87811E-04   -0.26326E-03  6280   0.707E-02    0.585E-01
RMM:  15    -0.554945426592E+03    0.70302E-04   -0.72302E-04  5977   0.943E-02    0.406E-01
RMM:  16    -0.554945445908E+03   -0.19316E-04   -0.56062E-04  5709   0.545E-02    0.289E-01
RMM:  17    -0.554945445857E+03    0.51019E-07   -0.21229E-04  4475   0.510E-02    0.221E-01
RMM:  18    -0.554945440443E+03    0.54137E-05   -0.98740E-05  4642   0.600E-02
  11 F= -.55494544E+03 E0= -.55493484E+03  d E =-.325327E+00  mag=    -0.0001
       N       E                     dE             d eps       ncg     rms          rms(c)
DAV:   1    -0.548729425644E+03    0.62160E+01   -0.54577E+02  7664   0.687E+01    0.810E+00
RMM:   2    -0.560189751744E+03   -0.11460E+02   -0.63548E+01  8512   0.252E+01    0.116E+01
RMM:   3    -0.558157344010E+03    0.20324E+01   -0.73198E+00  7335   0.117E+01    0.907E+00
RMM:   4    -0.555329075582E+03    0.28283E+01   -0.16828E+00  8250   0.320E+00    0.418E+00
RMM:   5    -0.555161070352E+03    0.16801E+00   -0.40945E-01  7959   0.167E+00    0.377E+00
RMM:   6    -0.555146450452E+03    0.14620E-01   -0.21468E-01  8508   0.739E-01    0.274E+00
RMM:   7    -0.555133965585E+03    0.12485E-01   -0.87768E-02  8008   0.708E-01    0.159E+00
RMM:   8    -0.555129901930E+03    0.40637E-02   -0.50894E-02  8113   0.497E-01    0.118E+00
RMM:   9    -0.555128431050E+03    0.14709E-02   -0.17579E-02  8417   0.229E-01    0.781E-01
RMM:  10    -0.555126243908E+03    0.21871E-02   -0.91950E-03  7797   0.232E-01    0.763E-01
RMM:  11    -0.555122044531E+03    0.41994E-02   -0.50895E-03  7604   0.217E-01    0.368E-01
RMM:  12    -0.555121373544E+03    0.67099E-03   -0.41030E-03  7897   0.118E-01    0.209E-01
RMM:  13    -0.555121376197E+03   -0.26527E-05   -0.95447E-04  6537   0.749E-02    0.106E-01
RMM:  14    -0.555121432480E+03   -0.56283E-04   -0.54079E-04  5239   0.496E-02    0.819E-02
RMM:  15    -0.555121443380E+03   -0.10900E-04   -0.13540E-04  5039   0.683E-02    0.195E-02
RMM:  16    -0.555121453370E+03   -0.99901E-05   -0.85012E-05  4302   0.523E-02
  12 F= -.55512145E+03 E0= -.55511375E+03  d E =-.501340E+00  mag=     0.0000
       N       E                     dE             d eps       ncg     rms          rms(c)
DAV:   1    -0.553983174778E+03    0.11383E+01   -0.10508E+02  7692   0.358E+01    0.316E+00
RMM:   2    -0.556993584065E+03   -0.30104E+01   -0.12966E+01  8680   0.117E+01    0.864E+00
RMM:   3    -0.555539792282E+03    0.14538E+01   -0.15167E+00  7205   0.657E+00    0.269E+00
RMM:   4    -0.555330589960E+03    0.20920E+00   -0.38249E-01  8529   0.143E+00    0.141E+00
RMM:   5    -0.555292285537E+03    0.38304E-01   -0.63426E-02  7475   0.992E-01    0.955E-01
RMM:   6    -0.555303688862E+03   -0.11403E-01   -0.65854E-02  8241   0.421E-01    0.121E+00
RMM:   7    -0.555293581206E+03    0.10108E-01   -0.15655E-02  7845   0.317E-01    0.786E-01
RMM:   8    -0.555293883682E+03   -0.30248E-03   -0.10735E-02  7993   0.213E-01    0.403E-01
RMM:   9    -0.555293412707E+03    0.47097E-03   -0.36416E-03  7471   0.136E-01    0.387E-01
RMM:  10    -0.555293601113E+03   -0.18841E-03   -0.21720E-03  7391   0.783E-02    0.256E-01
RMM:  11    -0.555293484740E+03    0.11637E-03   -0.64862E-04  6310   0.768E-02    0.187E-01
RMM:  12    -0.555293491051E+03   -0.63110E-05   -0.57248E-04  6451   0.558E-02    0.128E-01
RMM:  13    -0.555293481416E+03    0.96342E-05   -0.15834E-04  5008   0.610E-02    0.101E-01
RMM:  14    -0.555293489292E+03   -0.78757E-05   -0.10249E-04  4691   0.576E-02    0.501E-02
RMM:  15    -0.555293494769E+03   -0.54772E-05   -0.57001E-05  4159   0.583E-02
  13 F= -.55529349E+03 E0= -.55528548E+03  d E =-.172041E+00  mag=     0.0000
       N       E                     dE             d eps       ncg     rms          rms(c)
DAV:   1    -0.551297320366E+03    0.39962E+01   -0.32671E+02  7688   0.634E+01    0.602E+00
RMM:   2    -0.561357792950E+03   -0.10060E+02   -0.40709E+01  8604   0.208E+01    0.165E+01
RMM:   3    -0.556196599644E+03    0.51612E+01   -0.53093E+00  7153   0.136E+01    0.470E+00
RMM:   4    -0.555735623140E+03    0.46098E+00   -0.13199E+00  8584   0.273E+00    0.329E+00
RMM:   5    -0.555431177926E+03    0.30445E+00   -0.26140E-01  7427   0.211E+00    0.168E+00
RMM:   6    -0.555467569474E+03   -0.36392E-01   -0.22218E-01  8363   0.697E-01    0.195E+00
RMM:   7    -0.555451776122E+03    0.15793E-01   -0.77009E-02  8022   0.604E-01    0.176E+00
RMM:   8    -0.555445324508E+03    0.64516E-02   -0.38139E-02  7901   0.423E-01    0.917E-01
RMM:   9    -0.555444801216E+03    0.52329E-03   -0.16146E-02  8076   0.266E-01    0.866E-01
RMM:  10    -0.555445120346E+03   -0.31913E-03   -0.81910E-03  8144   0.128E-01    0.585E-01
RMM:  11    -0.555444634541E+03    0.48581E-03   -0.30419E-03  7520   0.128E-01    0.374E-01
RMM:  12    -0.555444642060E+03   -0.75193E-05   -0.19267E-03  6979   0.734E-02    0.306E-01
RMM:  13    -0.555444571228E+03    0.70832E-04   -0.57283E-04  6379   0.714E-02    0.229E-01
RMM:  14    -0.555444580482E+03   -0.92541E-05   -0.41725E-04  5691   0.578E-02    0.156E-01
RMM:  15    -0.555444578610E+03    0.18721E-05   -0.15785E-04  4732   0.542E-02    0.121E-01
RMM:  16    -0.555444579634E+03   -0.10236E-05   -0.75970E-05  4371   0.563E-02
  14 F= -.55544458E+03 E0= -.55543629E+03  d E =-.323126E+00  mag=    -0.0000
       N       E                     dE             d eps       ncg     rms          rms(c)
DAV:   1    -0.554066856103E+03    0.13777E+01   -0.12971E+02  7572   0.366E+01    0.343E+00
RMM:   2    -0.556567126333E+03   -0.25003E+01   -0.16029E+01  8674   0.117E+01    0.499E+00
RMM:   3    -0.556310719063E+03    0.25641E+00   -0.17576E+00  7367   0.519E+00    0.381E+00
RMM:   4    -0.555853810208E+03    0.45691E+00   -0.64536E-01  8392   0.168E+00    0.224E+00
RMM:   5    -0.555647464318E+03    0.20635E+00   -0.83015E-02  7394   0.128E+00    0.110E+00
RMM:   6    -0.555647693940E+03   -0.22962E-03   -0.64084E-02  8144   0.461E-01    0.796E-01
RMM:   7    -0.555647433721E+03    0.26022E-03   -0.18933E-02  8169   0.278E-01    0.488E-01
RMM:   8    -0.555647201194E+03    0.23253E-03   -0.92871E-03  7859   0.204E-01    0.194E-01
RMM:   9    -0.555647445342E+03   -0.24415E-03   -0.41843E-03  7910   0.128E-01    0.145E-01
RMM:  10    -0.555647422687E+03    0.22655E-04   -0.18386E-03  6938   0.888E-02    0.722E-02
RMM:  11    -0.555647475715E+03   -0.53028E-04   -0.79392E-04  6172   0.673E-02    0.419E-02
RMM:  12    -0.555647525730E+03   -0.50015E-04   -0.40254E-04  5731   0.598E-02    0.341E-02
RMM:  13    -0.555647567414E+03   -0.41684E-04   -0.14459E-04  4697   0.483E-02    0.317E-02
RMM:  14    -0.555647598452E+03   -0.31038E-04   -0.50106E-05  4274   0.607E-02    0.269E-02
RMM:  15    -0.555647616519E+03   -0.18068E-04   -0.33199E-05  4367   0.634E-02    0.328E-02
RMM:  16    -0.555647625627E+03   -0.91072E-05   -0.33595E-05  4234   0.566E-02
  15 F= -.55564763E+03 E0= -.55563963E+03  d E =-.203046E+00  mag=     0.0000
       N       E                     dE             d eps       ncg     rms          rms(c)
DAV:   1    -0.547706292626E+03    0.79413E+01   -0.64010E+02  7720   0.828E+01    0.924E+00
RMM:   2    -0.560831590828E+03   -0.13125E+02   -0.84102E+01  8567   0.262E+01    0.102E+01
RMM:   3    -0.560509810918E+03    0.32178E+00   -0.87583E+00  7272   0.132E+01    0.874E+00
RMM:   4    -0.556758819447E+03    0.37510E+01   -0.35175E+00  8268   0.440E+00    0.487E+00
RMM:   5    -0.555860159016E+03    0.89866E+00   -0.50623E-01  7440   0.291E+00    0.257E+00
RMM:   6    -0.555840937765E+03    0.19221E-01   -0.35193E-01  8444   0.877E-01    0.186E+00
RMM:   7    -0.555834922511E+03    0.60153E-02   -0.65815E-02  7816   0.702E-01    0.148E+00
RMM:   8    -0.555836778854E+03   -0.18563E-02   -0.57067E-02  8035   0.526E-01    0.875E-01
RMM:   9    -0.555842454955E+03   -0.56761E-02   -0.32103E-02  8210   0.345E-01    0.598E-01
RMM:  10    -0.555838652872E+03    0.38021E-02   -0.12723E-02  8044   0.197E-01    0.248E-01
RMM:  11    -0.555838192844E+03    0.46003E-03   -0.45725E-03  7827   0.126E-01    0.183E-01
RMM:  12    -0.555838140950E+03    0.51894E-04   -0.21806E-03  6680   0.890E-02    0.146E-01
RMM:  13    -0.555838194552E+03   -0.53602E-04   -0.91254E-04  6016   0.706E-02    0.105E-01
RMM:  14    -0.555838251920E+03   -0.57368E-04   -0.50113E-04  5777   0.672E-02    0.572E-02
RMM:  15    -0.555838354103E+03   -0.10218E-03   -0.23235E-04  5278   0.572E-02    0.493E-02
RMM:  16    -0.555838382038E+03   -0.27935E-04   -0.12504E-04  4723   0.553E-02    0.156E-02
RMM:  17    -0.555838401826E+03   -0.19787E-04   -0.57872E-05  4368   0.583E-02    0.491E-02
RMM:  18    -0.555838410929E+03   -0.91030E-05   -0.35638E-05  4316   0.548E-02
  16 F= -.55583841E+03 E0= -.55582974E+03  d E =-.393831E+00  mag=    -0.0000
       N       E                     dE             d eps       ncg     rms          rms(c)
DAV:   1    -0.555080434767E+03    0.75797E+00   -0.75494E+01  7584   0.260E+01    0.241E+00
RMM:   2    -0.556486173306E+03   -0.14057E+01   -0.88840E+00  8604   0.862E+00    0.370E+00
RMM:   3    -0.556176654662E+03    0.30952E+00   -0.92580E-01  7340   0.374E+00    0.226E+00
RMM:   4    -0.556062819299E+03    0.11384E+00   -0.35449E-01  8380   0.116E+00    0.162E+00
RMM:   5    -0.555957911154E+03    0.10491E+00   -0.41122E-02  7462   0.899E-01    0.723E-01
RMM:   6    -0.555959014796E+03   -0.11036E-02   -0.33665E-02  8321   0.276E-01    0.569E-01
RMM:   7    -0.555959155435E+03   -0.14064E-03   -0.86589E-03  7748   0.247E-01    0.271E-01
RMM:   8    -0.555959722147E+03   -0.56671E-03   -0.55429E-03  8050   0.129E-01    0.187E-01
RMM:   9    -0.555959472945E+03    0.24920E-03   -0.16177E-03  6889   0.112E-01    0.600E-02
RMM:  10    -0.555959568851E+03   -0.95906E-04   -0.13668E-03  6326   0.555E-02    0.616E-02
RMM:  11    -0.555959592245E+03   -0.23394E-04   -0.24971E-04  5312   0.741E-02    0.346E-02
RMM:  12    -0.555959638571E+03   -0.46326E-04   -0.25009E-04  5215   0.500E-02    0.256E-02
RMM:  13    -0.555959673507E+03   -0.34937E-04   -0.57772E-05  4251   0.562E-02    0.195E-02
RMM:  14    -0.555959707645E+03   -0.34138E-04   -0.50837E-05  4428   0.609E-02    0.242E-02
RMM:  15    -0.555959715646E+03   -0.80010E-05   -0.28966E-05  4213   0.564E-02
  17 F= -.55595972E+03 E0= -.55595069E+03  d E =-.121305E+00  mag=    -0.0000
       N       E                     dE             d eps       ncg     rms          rms(c)
DAV:   1    -0.548377947605E+03    0.75818E+01   -0.62699E+02  7784   0.758E+01    0.930E+00
RMM:   2    -0.560967549326E+03   -0.12590E+02   -0.79285E+01  8414   0.261E+01    0.108E+01
RMM:   3    -0.559873035608E+03    0.10945E+01   -0.88095E+00  7254   0.131E+01    0.774E+00
RMM:   4    -0.556718609747E+03    0.31544E+01   -0.30102E+00  8248   0.412E+00    0.439E+00
RMM:   5    -0.556120321192E+03    0.59829E+00   -0.41607E-01  7562   0.247E+00    0.244E+00
RMM:   6    -0.556106015615E+03    0.14306E-01   -0.31156E-01  8508   0.785E-01    0.171E+00
RMM:   7    -0.556103804802E+03    0.22108E-02   -0.57893E-02  7750   0.693E-01    0.152E+00
RMM:   8    -0.556107827339E+03   -0.40225E-02   -0.51920E-02  8243   0.421E-01    0.914E-01
RMM:   9    -0.556109114150E+03   -0.12868E-02   -0.29112E-02  8095   0.369E-01    0.396E-01
RMM:  10    -0.556106551904E+03    0.25622E-02   -0.10946E-02  8218   0.182E-01    0.302E-01
RMM:  11    -0.556106648719E+03   -0.96815E-04   -0.38326E-03  7297   0.136E-01    0.177E-01
RMM:  12    -0.556106608702E+03    0.40016E-04   -0.25862E-03  7152   0.758E-02    0.135E-01
RMM:  13    -0.556106638214E+03   -0.29512E-04   -0.52802E-04  5657   0.756E-02    0.107E-01
RMM:  14    -0.556106744936E+03   -0.10672E-03   -0.42189E-04  5286   0.567E-02    0.580E-02
RMM:  15    -0.556106815399E+03   -0.70463E-04   -0.27135E-04  5743   0.663E-02    0.241E-02
RMM:  16    -0.556106842662E+03   -0.27264E-04   -0.12728E-04  4908   0.556E-02    0.111E-02
RMM:  17    -0.556106861302E+03   -0.18639E-04   -0.56728E-05  4300   0.521E-02    0.133E-02
RMM:  18    -0.556106878714E+03   -0.17412E-04   -0.34437E-05  4285   0.566E-02    0.956E-03
RMM:  19    -0.556106900817E+03   -0.22103E-04   -0.20618E-05  4228   0.566E-02    0.194E-02
RMM:  20    -0.556106934924E+03   -0.34107E-04   -0.27723E-05  4371   0.516E-02    0.103E-02
RMM:  21    -0.556106949249E+03   -0.14326E-04   -0.22237E-05  4291   0.460E-02    0.106E-02
RMM:  22    -0.556106957172E+03   -0.79229E-05   -0.17547E-05  4279   0.466E-02
  18 F= -.55610696E+03 E0= -.55609783E+03  d E =-.268546E+00  mag=    -0.0000
       N       E                     dE             d eps       ncg     rms          rms(c)
DAV:   1    -0.555968016559E+03    0.13893E+00   -0.14034E+01  7840   0.131E+01    0.121E+00
RMM:   2    -0.556199652469E+03   -0.23164E+00   -0.18010E+00  8648   0.424E+00    0.156E+00
RMM:   3    -0.556251698693E+03   -0.52046E-01   -0.19818E-01  7654   0.163E+00    0.157E+00
RMM:   4    -0.556149943189E+03    0.10176E+00   -0.45291E-02  8180   0.518E-01    0.618E-01
RMM:   5    -0.556152887304E+03   -0.29441E-02   -0.16872E-02  8034   0.308E-01    0.578E-01
RMM:   6    -0.556148093619E+03    0.47937E-02   -0.65662E-03  7702   0.188E-01    0.369E-01
RMM:   7    -0.556148119239E+03   -0.25620E-04   -0.45011E-03  7746   0.173E-01    0.320E-01
RMM:   8    -0.556147425516E+03    0.69372E-03   -0.17467E-03  7190   0.119E-01    0.987E-02
RMM:   9    -0.556147450682E+03   -0.25166E-04   -0.66024E-04  6494   0.446E-02    0.970E-02
RMM:  10    -0.556147415561E+03    0.35120E-04   -0.93474E-05  4486   0.694E-02    0.496E-02
RMM:  11    -0.556147407808E+03    0.77529E-05   -0.12693E-04  4887   0.602E-02    0.344E-02
RMM:  12    -0.556147409519E+03   -0.17109E-05   -0.55998E-05  4326   0.617E-02
  19 F= -.55614741E+03 E0= -.55613732E+03  d E =-.404523E-01  mag=    -0.0000
       N       E                     dE             d eps       ncg     rms          rms(c)
DAV:   1    -0.556114822243E+03    0.32586E-01   -0.31492E+00  7880   0.618E+00    0.577E-01
RMM:   2    -0.556166023993E+03   -0.51202E-01   -0.40464E-01  8635   0.202E+00    0.707E-01
RMM:   3    -0.556179646375E+03   -0.13622E-01   -0.45232E-02  7716   0.749E-01    0.753E-01
RMM:   4    -0.556155717114E+03    0.23929E-01   -0.98575E-03  8010   0.252E-01    0.290E-01
RMM:   5    -0.556156552373E+03   -0.83526E-03   -0.42226E-03  7942   0.154E-01    0.273E-01
RMM:   6    -0.556155335115E+03    0.12173E-02   -0.15128E-03  7184   0.997E-02    0.163E-01
RMM:   7    -0.556155341140E+03   -0.60243E-05   -0.92039E-04  6570   0.891E-02    0.143E-01
RMM:   8    -0.556155226717E+03    0.11442E-03   -0.37311E-04  6373   0.686E-02    0.398E-02
RMM:   9    -0.556155233309E+03   -0.65917E-05   -0.14923E-04  5437   0.430E-02    0.442E-02
RMM:  10    -0.556155232027E+03    0.12818E-05   -0.19769E-05  4020   0.483E-02
  20 F= -.55615523E+03 E0= -.55614474E+03  d E =-.482749E-01  mag=    -0.0000
       N       E                     dE             d eps       ncg     rms          rms(c)
DAV:   1    -0.555987746858E+03    0.16749E+00   -0.12567E+01  7820   0.124E+01    0.117E+00
RMM:   2    -0.556193196926E+03   -0.20545E+00   -0.16240E+00  8638   0.405E+00    0.150E+00
RMM:   3    -0.556249799024E+03   -0.56602E-01   -0.18005E-01  7674   0.156E+00    0.153E+00
RMM:   4    -0.556152102298E+03    0.97697E-01   -0.40949E-02  8165   0.495E-01    0.609E-01
RMM:   5    -0.556155187540E+03   -0.30852E-02   -0.16345E-02  8051   0.302E-01    0.571E-01
RMM:   6    -0.556149916429E+03    0.52711E-02   -0.62206E-03  7702   0.189E-01    0.349E-01
RMM:   7    -0.556150028831E+03   -0.11240E-03   -0.43194E-03  7775   0.164E-01    0.301E-01
RMM:   8    -0.556149392675E+03    0.63616E-03   -0.15213E-03  7093   0.112E-01    0.953E-02
RMM:   9    -0.556149415342E+03   -0.22667E-04   -0.61304E-04  6369   0.445E-02    0.977E-02
RMM:  10    -0.556149390847E+03    0.24495E-04   -0.90137E-05  4521   0.666E-02    0.500E-02
RMM:  11    -0.556149380993E+03    0.98535E-05   -0.10830E-04  4716   0.567E-02    0.374E-02
RMM:  12    -0.556149382734E+03   -0.17403E-05   -0.52315E-05  4331   0.624E-02
  21 F= -.55614938E+03 E0= -.55613834E+03  d E =-.424256E-01  mag=    -0.0000
       N       E                     dE             d eps       ncg     rms          rms(c)
DAV:   1    -0.556076349544E+03    0.73031E-01   -0.62480E+00  7792   0.873E+00    0.822E-01
RMM:   2    -0.556177909476E+03   -0.10156E+00   -0.80791E-01  8677   0.286E+00    0.991E-01
RMM:   3    -0.556210287341E+03   -0.32378E-01   -0.89301E-02  7774   0.997E-01    0.112E+00
RMM:   4    -0.556157104517E+03    0.53183E-01   -0.17385E-02  8080   0.363E-01    0.418E-01
RMM:   5    -0.556159503644E+03   -0.23991E-02   -0.82239E-03  8107   0.193E-01    0.404E-01
RMM:   6    -0.556156638412E+03    0.28652E-02   -0.27574E-03  7604   0.139E-01    0.238E-01
RMM:   7    -0.556156585606E+03    0.52806E-04   -0.12641E-03  6361   0.104E-01    0.203E-01
RMM:   8    -0.556156452609E+03    0.13300E-03   -0.73154E-04  6615   0.804E-02    0.631E-02
RMM:   9    -0.556156450709E+03    0.18997E-05   -0.22134E-04  5828   0.522E-02    0.500E-02
RMM:  10    -0.556156446377E+03    0.43320E-05   -0.34039E-05  4057   0.433E-02
  22 F= -.55615645E+03 E0= -.55614578E+03  d E =-.494892E-01  mag=    -0.0000
       N       E                     dE             d eps       ncg     rms          rms(c)
DAV:   1    -0.556122735340E+03    0.33715E-01   -0.31099E+00  7940   0.626E+00    0.560E-01
RMM:   2    -0.556166753026E+03   -0.44018E-01   -0.42228E-01  8612   0.200E+00    0.463E-01
RMM:   3    -0.556202505496E+03   -0.35752E-01   -0.48428E-02  7800   0.710E-01    0.925E-01
RMM:   4    -0.556165487298E+03    0.37018E-01   -0.99729E-03  8016   0.260E-01    0.261E-01
RMM:   5    -0.556165984888E+03   -0.49759E-03   -0.29222E-03  7686   0.152E-01    0.286E-01
RMM:   6    -0.556165411488E+03    0.57340E-03   -0.15172E-03  7280   0.844E-02    0.228E-01
RMM:   7    -0.556165129955E+03    0.28153E-03   -0.46075E-04  6167   0.844E-02    0.110E-01
RMM:   8    -0.556165146015E+03   -0.16061E-04   -0.57600E-04  6694   0.638E-02    0.379E-02
RMM:   9    -0.556165123942E+03    0.22074E-04   -0.71947E-05  4638   0.557E-02    0.488E-02
RMM:  10    -0.556165127844E+03   -0.39018E-05   -0.37712E-05  4143   0.434E-02
  23 F= -.55616513E+03 E0= -.55615377E+03  d E =-.868147E-02  mag=    -0.0000
       N       E                     dE             d eps       ncg     rms          rms(c)
DAV:   1    -0.556155624717E+03    0.94992E-02   -0.75956E-01  8040   0.309E+00    0.290E-01
RMM:   2    -0.556166406888E+03   -0.10782E-01   -0.10330E-01  8520   0.998E-01    0.230E-01
RMM:   3    -0.556175980102E+03   -0.95732E-02   -0.12647E-02  7846   0.356E-01    0.476E-01
RMM:   4    -0.556166076863E+03    0.99032E-02   -0.25750E-03  7855   0.136E-01    0.124E-01
RMM:   5    -0.556166221642E+03   -0.14478E-03   -0.81239E-04  6836   0.833E-02    0.140E-01
RMM:   6    -0.556166091581E+03    0.13006E-03   -0.41029E-04  6457   0.580E-02    0.109E-01
RMM:   7    -0.556166011840E+03    0.79741E-04   -0.97250E-05  4788   0.592E-02    0.523E-02
RMM:   8    -0.556166030633E+03   -0.18793E-04   -0.15898E-04  5498   0.534E-02    0.280E-02
RMM:   9    -0.556166018015E+03    0.12618E-04   -0.25117E-05  4163   0.474E-02    0.292E-02
RMM:  10    -0.556166020902E+03   -0.28873E-05   -0.20976E-05  4119   0.463E-02
  24 F= -.55616602E+03 E0= -.55615438E+03  d E =-.957453E-02  mag=    -0.0000
       N       E                     dE             d eps       ncg     rms          rms(c)
DAV:   1    -0.556151359942E+03    0.14658E-01   -0.11038E+00  8004   0.402E+00    0.430E-01
RMM:   2    -0.556185636917E+03   -0.34277E-01   -0.17286E-01  8566   0.127E+00    0.826E-01
RMM:   3    -0.556179798151E+03    0.58388E-02   -0.20013E-02  7535   0.555E-01    0.521E-01
RMM:   4    -0.556169027804E+03    0.10770E-01   -0.61029E-03  8147   0.172E-01    0.167E-01
RMM:   5    -0.556169116236E+03   -0.88431E-04   -0.13904E-03  7158   0.141E-01    0.234E-01
RMM:   6    -0.556168461722E+03    0.65451E-03   -0.62941E-04  6642   0.651E-02    0.148E-01
RMM:   7    -0.556168448876E+03    0.12845E-04   -0.28460E-04  5897   0.596E-02    0.682E-02
RMM:   8    -0.556168466949E+03   -0.18073E-04   -0.92555E-05  5098   0.521E-02    0.808E-02
RMM:   9    -0.556168460359E+03    0.65908E-05   -0.21124E-05  3934   0.462E-02
  25 F= -.55616846E+03 E0= -.55615654E+03  d E =-.243946E-02  mag=    -0.0000
       N       E                     dE             d eps       ncg     rms          rms(c)
DAV:   1    -0.556160736413E+03    0.77305E-02   -0.53824E-01  8032   0.278E+00    0.288E-01
RMM:   2    -0.556177729727E+03   -0.16993E-01   -0.84784E-02  8552   0.888E-01    0.588E-01
RMM:   3    -0.556172924303E+03    0.48054E-02   -0.95155E-03  7590   0.374E-01    0.322E-01
RMM:   4    -0.556169358830E+03    0.35655E-02   -0.28886E-03  7966   0.120E-01    0.120E-01
RMM:   5    -0.556169464239E+03   -0.10541E-03   -0.75254E-04  6603   0.110E-01    0.181E-01
RMM:   6    -0.556169050630E+03    0.41361E-03   -0.34095E-04  6219   0.564E-02    0.110E-01
RMM:   7    -0.556169045156E+03    0.54743E-05   -0.11727E-04  4955   0.496E-02    0.529E-02
RMM:   8    -0.556169054095E+03   -0.89389E-05   -0.49356E-05  4425   0.489E-02
  26 F= -.55616905E+03 E0= -.55615697E+03  d E =-.303319E-02  mag=    -0.0000
       N       E                     dE             d eps       ncg     rms          rms(c)
DAV:   1    -0.556167343777E+03    0.17014E-02   -0.11304E-01  8200   0.128E+00    0.137E-01
RMM:   2    -0.556170770794E+03   -0.34270E-02   -0.17703E-02  8320   0.414E-01    0.264E-01
RMM:   3    -0.556169961156E+03    0.80964E-03   -0.22432E-03  7510   0.184E-01    0.153E-01
RMM:   4    -0.556169148027E+03    0.81313E-03   -0.67899E-04  6995   0.652E-02    0.712E-02
RMM:   5    -0.556169218651E+03   -0.70623E-04   -0.16298E-04  5358   0.683E-02    0.103E-01
RMM:   6    -0.556169079181E+03    0.13947E-03   -0.34497E-05  4103   0.531E-02    0.397E-02
RMM:   7    -0.556169080690E+03   -0.15090E-05   -0.34251E-05  4235   0.499E-02
  27 F= -.55616908E+03 E0= -.55615693E+03  d E =-.305979E-02  mag=    -0.0000
       N       E                     dE             d eps       ncg     rms          rms(c)
DAV:   1    -0.556161244052E+03    0.78351E-02   -0.82672E-01  7580   0.266E+00    0.263E-01
RMM:   2    -0.556177152490E+03   -0.15908E-01   -0.91200E-02  8446   0.980E-01    0.545E-01
RMM:   3    -0.556174309976E+03    0.28425E-02   -0.10950E-02  7674   0.367E-01    0.316E-01
RMM:   4    -0.556170652746E+03    0.36572E-02   -0.27955E-03  8033   0.124E-01    0.127E-01
RMM:   5    -0.556170765634E+03   -0.11289E-03   -0.69460E-04  6495   0.105E-01    0.176E-01
RMM:   6    -0.556170464954E+03    0.30068E-03   -0.34956E-04  6118   0.540E-02    0.118E-01
RMM:   7    -0.556170458487E+03    0.64667E-05   -0.11984E-04  4973   0.550E-02    0.401E-02
RMM:   8    -0.556170465343E+03   -0.68561E-05   -0.55098E-05  4602   0.557E-02
  28 F= -.55617047E+03 E0= -.55615825E+03  d E =-.138465E-02  mag=    -0.0000
