       N       E                     dE             d eps       ncg     rms          rms(c)
DAV:   1     0.159401663403E+05    0.15940E+05   -0.72838E+05 15056   0.130E+03
DAV:   2     0.176407476081E+04   -0.14176E+05   -0.13789E+05 14216   0.372E+02
DAV:   3    -0.167167372569E+03   -0.19312E+04   -0.18776E+04 15688   0.183E+02
DAV:   4    -0.272220803492E+03   -0.10505E+03   -0.10390E+03 15896   0.488E+01
DAV:   5    -0.276554718485E+03   -0.43339E+01   -0.43317E+01 18888   0.754E+00    0.749E+01
RMM:   6    -0.220014558993E+03    0.56540E+02   -0.15259E+02 14236   0.992E+00    0.346E+01
RMM:   7    -0.222956252069E+03   -0.29417E+01   -0.18613E+01 14416   0.442E+00    0.220E+01
RMM:   8    -0.203747950446E+03    0.19208E+02   -0.82240E+00 14588   0.248E+00    0.176E+01
RMM:   9    -0.183330944183E+03    0.20417E+02   -0.79148E+00 14454   0.240E+00    0.136E+01
RMM:  10    -0.185599806612E+03   -0.22689E+01   -0.13896E+00 14658   0.971E-01    0.121E+01
RMM:  11    -0.188529372620E+03   -0.29296E+01   -0.41775E+00 14321   0.179E+00    0.758E+00
RMM:  12    -0.201528550054E+03   -0.12999E+02   -0.50578E+00 14390   0.135E+00    0.602E+00
RMM:  13    -0.214063948636E+03   -0.12535E+02   -0.77443E+00 14354   0.156E+00    0.457E+00
RMM:  14    -0.237117413112E+03   -0.23053E+02   -0.20244E+01 14391   0.191E+00    0.404E+00
RMM:  15    -0.244474075463E+03   -0.73567E+01   -0.47467E+01 14644   0.165E+00    0.360E+00
RMM:  16    -0.251892566179E+03   -0.74185E+01   -0.89503E+01 14724   0.208E+00    0.320E+00
RMM:  17    -0.259220132678E+03   -0.73276E+01   -0.14522E+02 14650   0.295E+00    0.399E+00
RMM:  18    -0.260504773392E+03   -0.12846E+01   -0.16917E+02 14676   0.302E+00    0.293E+00
RMM:  19    -0.264427042313E+03   -0.39223E+01   -0.77596E+01 14453   0.214E+00    0.253E+00
RMM:  20    -0.262563547970E+03    0.18635E+01   -0.24775E+02 14441   0.321E+00    0.196E+00
RMM:  21    -0.272030641643E+03   -0.94671E+01   -0.72935E+01 14531   0.141E+00    0.215E+00
RMM:  22    -0.271746281774E+03    0.28436E+00   -0.13175E+02 14393   0.210E+00    0.146E+00
RMM:  23    -0.273595685744E+03   -0.18494E+01   -0.11496E+02 14417   0.197E+00    0.204E+00
RMM:  24    -0.278582111613E+03   -0.49864E+01   -0.10784E+02 14793   0.172E+00    0.140E+00
RMM:  25    -0.281855133984E+03   -0.32730E+01   -0.19252E+02 14469   0.259E+00    0.126E+00
RMM:  26    -0.280766290645E+03    0.10888E+01   -0.24157E+02 14702   0.302E+00    0.236E+00
RMM:  27    -0.284612191710E+03   -0.38459E+01   -0.22693E+02 14738   0.305E+00    0.103E+00
RMM:  28    -0.287059568277E+03   -0.24474E+01   -0.22627E+02 14721   0.299E+00    0.120E+00
RMM:  29    -0.288132475019E+03   -0.10729E+01   -0.22774E+02 14722   0.284E+00    0.212E+00
RMM:  30    -0.287058255525E+03    0.10742E+01   -0.28257E+02 14684   0.322E+00    0.644E-01
RMM:  31    -0.289050061590E+03   -0.19918E+01   -0.24237E+02 14497   0.285E+00    0.128E+00
RMM:  32    -0.286866937894E+03    0.21831E+01   -0.26452E+02 14719   0.311E+00    0.437E-01
RMM:  33    -0.288286387762E+03   -0.14194E+01   -0.26629E+02 14639   0.296E+00    0.922E-01
RMM:  34    -0.288750248550E+03   -0.46386E+00   -0.28257E+02 14697   0.321E+00    0.345E-01
RMM:  35    -0.288970159238E+03   -0.21991E+00   -0.31078E+02 14838   0.351E+00    0.125E+00
RMM:  36    -0.287957152690E+03    0.10130E+01   -0.26791E+02 14617   0.313E+00    0.511E-01
RMM:  37    -0.288267169793E+03   -0.31002E+00   -0.24220E+02 14775   0.277E+00    0.537E-01
RMM:  38    -0.288451823975E+03   -0.18465E+00   -0.27956E+02 14881   0.322E+00    0.661E-01
RMM:  39    -0.288683168576E+03   -0.23134E+00   -0.31812E+02 14425   0.349E+00    0.294E-01
RMM:  40    -0.288964416287E+03   -0.28125E+00   -0.26344E+02 12683   0.299E+00    0.722E-01
RMM:  41    -0.287643720096E+03    0.13207E+01   -0.30187E+02 11086   0.337E+00    0.935E-01
RMM:  42    -0.288548811818E+03   -0.90509E+00   -0.22138E+02 14701   0.254E+00    0.989E-01
RMM:  43    -0.287475752887E+03    0.10731E+01   -0.25576E+02 12068   0.299E+00    0.479E-01
RMM:  44    -0.287829607989E+03   -0.35386E+00   -0.27117E+02 10793   0.304E+00    0.184E-01
RMM:  45    -0.287508914177E+03    0.32069E+00   -0.27235E+02 13003   0.305E+00    0.735E-01
RMM:  46    -0.287497534605E+03    0.11380E-01   -0.28078E+02 13672   0.304E+00    0.236E-01
RMM:  47    -0.287967934998E+03   -0.47040E+00   -0.26701E+02 10431   0.307E+00    0.263E-01
RMM:  48    -0.287381949126E+03    0.58599E+00   -0.25015E+02 14101   0.284E+00    0.184E-01
RMM:  49    -0.288107751573E+03   -0.72580E+00   -0.27860E+02 10793   0.309E+00    0.151E-01
RMM:  50    -0.287961507657E+03    0.14624E+00   -0.30477E+02 14139   0.334E+00    0.215E-01
RMM:  51    -0.287650819285E+03    0.31069E+00   -0.30872E+02 14620   0.338E+00    0.206E-01
RMM:  52    -0.287476223772E+03    0.17460E+00   -0.25395E+02 12553   0.282E+00    0.724E-01
RMM:  53    -0.287093401231E+03    0.38282E+00   -0.23735E+02 12418   0.280E+00    0.161E-01
RMM:  54    -0.287412518045E+03   -0.31912E+00   -0.26715E+02 14303   0.292E+00    0.102E+00
RMM:  55    -0.287492104585E+03   -0.79587E-01   -0.28684E+02 11419   0.317E+00    0.243E-01
RMM:  56    -0.287531415641E+03   -0.39311E-01   -0.26877E+02 10370   0.299E+00    0.544E-01
RMM:  57    -0.287973998048E+03   -0.44258E+00   -0.29115E+02 10373   0.325E+00    0.268E-01
RMM:  58    -0.286519499609E+03    0.14545E+01   -0.26294E+02 10188   0.297E+00    0.245E-01
RMM:  59    -0.287624563789E+03   -0.11051E+01   -0.20624E+02 11325   0.231E+00    0.223E-01
RMM:  60    -0.287194290245E+03    0.43027E+00   -0.27396E+02 10565   0.313E+00
   1 F= -.28719429E+03 E0= -.28719042E+03  d E =-.287194E+03  mag=     1.6309
       N       E                     dE             d eps       ncg     rms          rms(c)
DAV:   1    -0.281564937257E+03    0.60596E+01   -0.28308E+02 15096   0.512E+00    0.112E+00
RMM:   2    -0.281393383655E+03    0.17155E+00   -0.20670E-01 14415   0.601E-01    0.831E-01
RMM:   3    -0.281319682217E+03    0.73701E-01   -0.59525E-02 17614   0.255E-01    0.615E-01
RMM:   4    -0.281271000636E+03    0.48682E-01   -0.11928E-02 14496   0.893E-02    0.455E-01
RMM:   5    -0.281241467699E+03    0.29533E-01   -0.87942E-03 14564   0.751E-02    0.386E-01
RMM:   6    -0.281190137007E+03    0.51331E-01   -0.17364E-02 14310   0.796E-02    0.194E-01
RMM:   7    -0.281172947534E+03    0.17189E-01   -0.23037E-03 14310   0.491E-02    0.167E-01
RMM:   8    -0.281154102276E+03    0.18845E-01    0.20462E-02 14195   0.373E-02    0.118E-01
RMM:   9    -0.281110792200E+03    0.43310E-01    0.11612E-01 13971   0.237E-02    0.110E-01
RMM:  10    -0.281722300991E+03   -0.61151E+00    0.45949E-01 10476   0.256E-03    0.151E-01
RMM:  11    -0.282903339579E+03   -0.11810E+01   -0.16345E+01 14451   0.343E-01    0.395E-01
RMM:  12    -0.283619813153E+03   -0.71647E+00   -0.46566E+01 12530   0.728E-01    0.409E-01
RMM:  13    -0.283675586315E+03   -0.55773E-01   -0.69508E+01 12230   0.110E+00    0.639E-01
RMM:  14    -0.283642227989E+03    0.33358E-01   -0.67007E+01 14781   0.111E+00    0.576E-01
RMM:  15    -0.284188875683E+03   -0.54665E+00   -0.65630E+01 10543   0.107E+00    0.561E-01
RMM:  16    -0.285361236700E+03   -0.11724E+01   -0.81425E+01 14461   0.127E+00    0.524E-01
RMM:  17    -0.285918662568E+03   -0.55743E+00   -0.91559E+01 11886   0.131E+00    0.689E-01
RMM:  18    -0.285615325370E+03    0.30334E+00   -0.11670E+02 10368   0.161E+00    0.724E-01
RMM:  19    -0.285462851769E+03    0.15247E+00   -0.13603E+02  9878   0.177E+00    0.728E-01
RMM:  20    -0.285372619499E+03    0.90232E-01   -0.10043E+02  9383   0.135E+00    0.747E-01
RMM:  21    -0.284250307087E+03    0.11223E+01   -0.13160E+02  9921   0.163E+00    0.655E-01
RMM:  22    -0.286192811507E+03   -0.19425E+01   -0.12638E+02 10022   0.159E+00    0.836E-01
RMM:  23    -0.285080828944E+03    0.11120E+01   -0.19045E+02 10213   0.234E+00    0.965E-01
RMM:  24    -0.285608270725E+03   -0.52744E+00   -0.20124E+02  9119   0.229E+00    0.959E-01
RMM:  25    -0.284617537305E+03    0.99073E+00   -0.22973E+02  8630   0.256E+00    0.584E-01
RMM:  26    -0.285504571230E+03   -0.88703E+00   -0.12975E+02  9865   0.174E+00    0.132E+00
RMM:  27    -0.285265781514E+03    0.23879E+00   -0.20930E+02  9726   0.231E+00    0.102E+00
RMM:  28    -0.287112514317E+03   -0.18467E+01   -0.21268E+02 10058   0.246E+00    0.144E+00
RMM:  29    -0.284882164861E+03    0.22303E+01   -0.28003E+02  9782   0.316E+00    0.959E-01
RMM:  30    -0.285827411103E+03   -0.94525E+00   -0.20462E+02  9492   0.233E+00    0.112E+00
RMM:  31    -0.285486423516E+03    0.34099E+00   -0.25345E+02  9464   0.275E+00    0.663E-01
RMM:  32    -0.286507207336E+03   -0.10208E+01   -0.15041E+02 10184   0.190E+00    0.114E+00
RMM:  33    -0.285721869306E+03    0.78534E+00   -0.25224E+02  9211   0.282E+00    0.778E-01
RMM:  34    -0.287763444484E+03   -0.20416E+01   -0.19397E+02 10069   0.230E+00    0.100E+00
RMM:  35    -0.286296292714E+03    0.14672E+01   -0.28893E+02  9708   0.319E+00    0.737E-01
RMM:  36    -0.286383458325E+03   -0.87166E-01   -0.18312E+02  9476   0.227E+00    0.895E-01
RMM:  37    -0.284356824378E+03    0.20266E+01   -0.26122E+02  9329   0.282E+00    0.738E-01
RMM:  38    -0.286897499924E+03   -0.25407E+01   -0.18424E+02  9542   0.214E+00    0.103E+00
RMM:  39    -0.284427804956E+03    0.24697E+01   -0.29193E+02  9593   0.321E+00    0.736E-01
RMM:  40    -0.286213484127E+03   -0.17857E+01   -0.17768E+02  9995   0.209E+00    0.988E-01
RMM:  41    -0.284339984572E+03    0.18735E+01   -0.27960E+02  9590   0.306E+00    0.979E-01
RMM:  42    -0.285637304886E+03   -0.12973E+01   -0.15752E+02  9812   0.189E+00    0.129E+00
RMM:  43    -0.284781865116E+03    0.85544E+00   -0.24039E+02  8903   0.265E+00    0.827E-01
RMM:  44    -0.287553950290E+03   -0.27721E+01   -0.21763E+02  8520   0.245E+00    0.102E+00
RMM:  45    -0.284173364101E+03    0.33806E+01   -0.29129E+02 10166   0.325E+00    0.693E-01
RMM:  46    -0.285640751402E+03   -0.14674E+01   -0.15829E+02  9989   0.185E+00    0.878E-01
RMM:  47    -0.285336569132E+03    0.30418E+00   -0.22844E+02 14622   0.264E+00    0.889E-01
RMM:  48    -0.286229540502E+03   -0.89297E+00   -0.16933E+02 11868   0.204E+00    0.107E+00
RMM:  49    -0.284156171322E+03    0.20734E+01   -0.25438E+02 10217   0.286E+00    0.851E-01
RMM:  50    -0.285697834898E+03   -0.15417E+01   -0.16773E+02 10299   0.198E+00    0.101E+00
RMM:  51    -0.283801393430E+03    0.18964E+01   -0.23884E+02  9991   0.266E+00    0.826E-01
RMM:  52    -0.285435011077E+03   -0.16336E+01   -0.17863E+02 14374   0.205E+00    0.940E-01
RMM:  53    -0.284016099702E+03    0.14189E+01   -0.18939E+02 13916   0.228E+00    0.593E-01
RMM:  54    -0.285066570796E+03   -0.10505E+01   -0.13402E+02 13145   0.164E+00    0.113E+00
RMM:  55    -0.284312424761E+03    0.75415E+00   -0.19046E+02 10825   0.225E+00    0.665E-01
RMM:  56    -0.285647531217E+03   -0.13351E+01   -0.15959E+02 10272   0.193E+00    0.951E-01
RMM:  57    -0.283753297042E+03    0.18942E+01   -0.23631E+02 14543   0.269E+00    0.549E-01
RMM:  58    -0.285366022060E+03   -0.16127E+01   -0.14984E+02 14920   0.180E+00    0.808E-01
RMM:  59    -0.284302213334E+03    0.10638E+01   -0.22497E+02 14182   0.256E+00    0.961E-01
RMM:  60    -0.285863916205E+03   -0.15617E+01   -0.17874E+02 12687   0.208E+00
   2 F= -.28586392E+03 E0= -.28586310E+03  d E =0.133037E+01  mag=     0.6311
       N       E                     dE             d eps       ncg     rms          rms(c)
DAV:   1    -0.281374687957E+03    0.29275E+01   -0.34454E+02 15152   0.909E+00    0.227E+00
RMM:   2    -0.281533611824E+03   -0.15892E+00   -0.15556E+00 14833   0.184E+00    0.661E-01
RMM:   3    -0.281574448541E+03   -0.40837E-01   -0.39695E-01 18189   0.669E-01    0.104E+00
RMM:   4    -0.281567740256E+03    0.67083E-02   -0.79076E-03 15162   0.110E-01    0.886E-01
RMM:   5    -0.281565301171E+03    0.24391E-02   -0.76558E-04 16313   0.467E-02    0.772E-01
RMM:   6    -0.281565456232E+03   -0.15506E-03    0.19728E-03 15693   0.194E-02    0.421E-01
RMM:   7    -0.281563571975E+03    0.18843E-02    0.24481E-03 14309   0.839E-02    0.627E-01
RMM:   8    -0.281562457214E+03    0.11148E-02    0.31542E-02 14236   0.126E-02    0.458E-01
RMM:   9    -0.281577897004E+03   -0.15440E-01    0.91289E-02 11948   0.705E-03    0.604E-01
RMM:  10    -0.282694379025E+03   -0.11165E+01   -0.28544E+00 12855   0.706E-02    0.511E-01
RMM:  11    -0.284048153590E+03   -0.13538E+01   -0.38409E+01 10036   0.708E-01    0.631E-01
RMM:  12    -0.284581719890E+03   -0.53357E+00   -0.91154E+01  9678   0.131E+00    0.799E-01
RMM:  13    -0.285305059305E+03   -0.72334E+00   -0.88428E+01  9155   0.139E+00    0.888E-01
