       N       E                     dE             d eps       ncg     rms          rms(c)
DAV:   1     0.334286914157E+04    0.33429E+04   -0.26930E+05  7240   0.113E+03
DAV:   2    -0.569593399264E+03   -0.39125E+04   -0.51550E+04  7656   0.351E+02
DAV:   3    -0.347739275158E+05   -0.34204E+05   -0.18868E+05  8424   0.109E+02
DAV:   4    -0.552937413023E+05   -0.20520E+05   -0.54428E+05  9454   0.437E+01
DAV:   5    -0.230883654129E+05    0.32205E+05   -0.19232E+05  9368   0.480E+01    0.296E+04
