       N       E                     dE             d eps       ncg     rms          rms(c)
DAV:   1     0.102474773348E+05    0.10247E+05   -0.69941E+05 14400   0.106E+03
DAV:   2     0.726621612146E+02   -0.10175E+05   -0.95630E+04 15600   0.258E+02
DAV:   3    -0.580112294200E+03   -0.65277E+03   -0.60174E+03 14872   0.569E+01
DAV:   4    -0.596657835191E+03   -0.16546E+02   -0.16377E+02 14912   0.886E+00
DAV:   5    -0.597407120866E+03   -0.74929E+00   -0.74826E+00 17872   0.175E+00    0.688E+01
RMM:   6    -0.706874252515E+03   -0.10947E+03   -0.35437E+02 13101   0.139E+01    0.114E+02
RMM:   7    -0.517356998918E+03    0.18952E+03   -0.45664E+01 13096   0.507E+00    0.473E+01
RMM:   8    -0.533101097374E+03   -0.15744E+02   -0.16019E+01 13098   0.276E+00    0.457E+01
RMM:   9    -0.482297046291E+03    0.50804E+02   -0.46269E+01 13116   0.468E+00    0.248E+01
RMM:  10    -0.495822962805E+03   -0.13526E+02   -0.93924E+00 13114   0.233E+00    0.340E+01
RMM:  11    -0.491722952391E+03    0.41000E+01   -0.44193E+00 13102   0.157E+00    0.134E+01
RMM:  12    -0.505095636465E+03   -0.13373E+02   -0.72829E+00 13107   0.189E+00    0.188E+01
RMM:  13    -0.509318842619E+03   -0.42232E+01   -0.36206E+00 13101   0.130E+00    0.939E+00
RMM:  14    -0.521372059826E+03   -0.12053E+02   -0.50655E+00 13091   0.147E+00    0.135E+01
RMM:  15    -0.525363970973E+03   -0.39919E+01   -0.20842E+00 13103   0.942E-01    0.790E+00
RMM:  16    -0.534694068771E+03   -0.93301E+01   -0.36120E+00 13075   0.125E+00    0.103E+01
RMM:  17    -0.539685383567E+03   -0.49913E+01   -0.26247E+00 13093   0.107E+00    0.602E+00
RMM:  18    -0.544730005658E+03   -0.50446E+01   -0.82116E+00 13074   0.163E+00    0.611E+00
RMM:  19    -0.546680197415E+03   -0.19502E+01   -0.14652E+00 13079   0.744E-01    0.545E+00
RMM:  20    -0.552560236152E+03   -0.58800E+01   -0.21341E+00 13075   0.833E-01    0.358E+00
RMM:  21    -0.555232824088E+03   -0.26726E+01   -0.11212E+00 13074   0.578E-01    0.308E+00
RMM:  22    -0.556786318912E+03   -0.15535E+01   -0.37787E-01 13093   0.374E-01    0.312E+00
RMM:  23    -0.558959506183E+03   -0.21732E+01   -0.82617E-01 13075   0.464E-01    0.180E+00
RMM:  24    -0.559868997395E+03   -0.90949E+00   -0.40011E-01 13073   0.352E-01    0.161E+00
RMM:  25    -0.560227037841E+03   -0.35804E+00   -0.77043E-02 13092   0.157E-01    0.173E+00
RMM:  26    -0.560833846545E+03   -0.60681E+00   -0.67036E-02 13074   0.152E-01    0.118E+00
RMM:  27    -0.562811180220E+03   -0.19773E+01   -0.33048E-01 13072   0.255E-01    0.962E-01
RMM:  28    -0.563690854750E+03   -0.87967E+00   -0.92995E-02 13089   0.128E-01    0.851E-01
RMM:  29    -0.563952199266E+03   -0.26134E+00   -0.18747E-02 13091   0.721E-02    0.853E-01
RMM:  30    -0.564503501835E+03   -0.55130E+00   -0.31206E-02 13085   0.825E-02    0.566E-01
RMM:  31    -0.565112110590E+03   -0.60861E+00   -0.20352E-02 13092   0.637E-02    0.427E-01
RMM:  32    -0.565796608487E+03   -0.68450E+00   -0.14073E-02 13093   0.559E-02    0.269E-01
RMM:  33    -0.566726371138E+03   -0.92976E+00   -0.17624E-02 13096   0.713E-02    0.202E-01
RMM:  34    -0.566915817345E+03   -0.18945E+00   -0.51980E-03 13095   0.396E-02    0.110E-01
RMM:  35    -0.566991266206E+03   -0.75449E-01   -0.40434E-03 13061   0.272E-02    0.959E-02
RMM:  36    -0.567030502381E+03   -0.39236E-01   -0.18937E-03 12349   0.179E-02    0.754E-02
RMM:  37    -0.567054100994E+03   -0.23599E-01   -0.70654E-04 11101   0.126E-02    0.621E-02
RMM:  38    -0.567073849130E+03   -0.19748E-01   -0.43048E-04 10793   0.115E-02    0.431E-02
RMM:  39    -0.567089892343E+03   -0.16043E-01   -0.37314E-04 10360   0.888E-03    0.302E-02
RMM:  40    -0.567095659668E+03   -0.57673E-02   -0.12803E-04  8904   0.429E-03    0.197E-02
RMM:  41    -0.567097684818E+03   -0.20252E-02   -0.52907E-05  8615   0.301E-03    0.104E-02
RMM:  42    -0.567098879519E+03   -0.11947E-02   -0.27453E-05  8193   0.243E-03    0.640E-03
RMM:  43    -0.567099501206E+03   -0.62169E-03   -0.19790E-05  7980   0.223E-03    0.333E-03
RMM:  44    -0.567099807033E+03   -0.30583E-03   -0.11164E-05  7126   0.160E-03    0.206E-03
RMM:  45    -0.567099923655E+03   -0.11662E-03   -0.65175E-06  5816   0.113E-03    0.103E-03
RMM:  46    -0.567099965539E+03   -0.41884E-04   -0.27804E-06  4634   0.840E-04    0.773E-04
RMM:  47    -0.567099983262E+03   -0.17723E-04   -0.13433E-06  3847   0.708E-04    0.496E-04
RMM:  48    -0.567099992422E+03   -0.91599E-05   -0.57528E-07  3212   0.624E-04
   1 F= -.56709999E+03 E0= -.56702300E+03  d E =-.567100E+03  mag=    71.3657
       N       E                     dE             d eps       ncg     rms          rms(c)
DAV:   1    -0.567331806645E+03   -0.23182E+00   -0.11435E+01 12784   0.237E+00    0.229E-01
RMM:   2    -0.567343281029E+03   -0.11474E-01   -0.11164E-01 12973   0.337E-01    0.197E-01
RMM:   3    -0.567344568210E+03   -0.12872E-02   -0.57850E-03 13264   0.675E-02    0.298E-01
RMM:   4    -0.567342738751E+03    0.18295E-02   -0.71920E-04 13114   0.240E-02    0.126E-01
RMM:   5    -0.567342740921E+03   -0.21701E-05   -0.46735E-04 13036   0.178E-02    0.176E-01
RMM:   6    -0.567342577053E+03    0.16387E-03   -0.38453E-04 13074   0.160E-02    0.134E-01
RMM:   7    -0.567342435358E+03    0.14169E-03   -0.28527E-04 12616   0.136E-02    0.467E-02
RMM:   8    -0.567342447950E+03   -0.12592E-04   -0.40270E-05  9092   0.533E-03    0.505E-02
RMM:   9    -0.567342432567E+03    0.15383E-04   -0.10478E-05  7614   0.311E-03    0.198E-02
RMM:  10    -0.567342429820E+03    0.27465E-05   -0.37476E-06  7115   0.172E-03
   2 F= -.56734243E+03 E0= -.56726570E+03  d E =-.242437E+00  mag=    71.3636
       N       E                     dE             d eps       ncg     rms          rms(c)
DAV:   1    -0.567779523027E+03   -0.43709E+00   -0.10294E+02 12536   0.711E+00    0.706E-01
RMM:   2    -0.567883167932E+03   -0.10364E+00   -0.10084E+00 13101   0.101E+00    0.610E-01
RMM:   3    -0.567895174621E+03   -0.12007E-01   -0.52647E-02 13276   0.204E-01    0.897E-01
RMM:   4    -0.567878356640E+03    0.16818E-01   -0.69623E-03 13100   0.738E-02    0.401E-01
RMM:   5    -0.567879784527E+03   -0.14279E-02   -0.32960E-03 13104   0.482E-02    0.663E-01
RMM:   6    -0.567875796419E+03    0.39881E-02   -0.45776E-03 13094   0.555E-02    0.284E-01
RMM:   7    -0.567875184433E+03    0.61199E-03   -0.25402E-03 13131   0.393E-02    0.161E-01
RMM:   8    -0.567875170974E+03    0.13459E-04   -0.40837E-04 13086   0.162E-02    0.144E-01
RMM:   9    -0.567875021995E+03    0.14898E-03   -0.74502E-05 10345   0.737E-03    0.581E-02
RMM:  10    -0.567874984231E+03    0.37764E-04   -0.34953E-05  9305   0.492E-03    0.657E-02
RMM:  11    -0.567874906024E+03    0.78207E-04   -0.47690E-05 11189   0.571E-03    0.319E-02
RMM:  12    -0.567874875750E+03    0.30273E-04   -0.27695E-05  8658   0.449E-03    0.364E-02
RMM:  13    -0.567874817099E+03    0.58651E-04   -0.46318E-05 10754   0.543E-03    0.695E-03
RMM:  14    -0.567874810109E+03    0.69901E-05   -0.23779E-06  7020   0.148E-03
   3 F= -.56787481E+03 E0= -.56779882E+03  d E =-.774818E+00  mag=    71.3529
       N       E                     dE             d eps       ncg     rms          rms(c)
DAV:   1    -0.567982279787E+03   -0.10746E+00   -0.41220E+02 12432   0.143E+01    0.149E+00
RMM:   2    -0.568397366068E+03   -0.41509E+00   -0.40362E+00 13097   0.203E+00    0.128E+00
RMM:   3    -0.568447679239E+03   -0.50313E-01   -0.21381E-01 13269   0.412E-01    0.179E+00
RMM:   4    -0.568378888551E+03    0.68791E-01   -0.31118E-02 13098   0.154E-01    0.864E-01
RMM:   5    -0.568379866235E+03   -0.97768E-03   -0.22396E-02 13099   0.122E-01    0.121E+00
RMM:   6    -0.568371118167E+03    0.87481E-02   -0.16137E-02 13098   0.103E-01    0.849E-01
RMM:   7    -0.568364280523E+03    0.68376E-02   -0.74454E-03 13152   0.702E-02    0.264E-01
RMM:   8    -0.568364619240E+03   -0.33872E-03   -0.13474E-03 13111   0.292E-02    0.321E-01
RMM:   9    -0.568363814467E+03    0.80477E-03   -0.38206E-04 13098   0.157E-02    0.107E-01
RMM:  10    -0.568363712395E+03    0.10207E-03   -0.14724E-04 12792   0.969E-03    0.128E-01
RMM:  11    -0.568363466582E+03    0.24581E-03   -0.14147E-04 12554   0.950E-03    0.593E-02
RMM:  12    -0.568363385264E+03    0.81319E-04   -0.10890E-04 12453   0.826E-03    0.712E-02
RMM:  13    -0.568363237432E+03    0.14783E-03   -0.12061E-04 12362   0.838E-03    0.135E-02
RMM:  14    -0.568363252907E+03   -0.15476E-04   -0.41986E-06  7423   0.192E-03    0.178E-02
RMM:  15    -0.568363265390E+03   -0.12483E-04   -0.15587E-06  6578   0.121E-03    0.106E-02
RMM:  16    -0.568363359971E+03   -0.94581E-04   -0.68207E-06  7088   0.202E-03    0.803E-03
RMM:  17    -0.568363416389E+03   -0.56419E-04   -0.17090E-06  6968   0.116E-03    0.866E-03
RMM:  18    -0.568363541419E+03   -0.12503E-03   -0.14530E-06  4246   0.760E-04    0.535E-03
RMM:  19    -0.568363851704E+03   -0.31029E-03   -0.67022E-06  7331   0.126E-03    0.412E-03
RMM:  20    -0.568364090177E+03   -0.23847E-03   -0.58769E-06  5910   0.106E-03    0.655E-03
RMM:  21    -0.568364194692E+03   -0.10452E-03   -0.37231E-06  5762   0.976E-04    0.287E-03
RMM:  22    -0.568364282541E+03   -0.87849E-04   -0.30238E-06  4837   0.816E-04    0.228E-03
RMM:  23    -0.568364320925E+03   -0.38384E-04   -0.69656E-07  2942   0.578E-04    0.281E-03
RMM:  24    -0.568364384851E+03   -0.63925E-04   -0.89286E-07  3447   0.609E-04    0.165E-03
RMM:  25    -0.568364461671E+03   -0.76820E-04   -0.13498E-06  3613   0.651E-04    0.115E-03
RMM:  26    -0.568364524757E+03   -0.63087E-04   -0.11168E-06  3287   0.652E-04    0.996E-04
RMM:  27    -0.568364599340E+03   -0.74582E-04   -0.11321E-06  4153   0.751E-04    0.661E-04
RMM:  28    -0.568364651700E+03   -0.52360E-04   -0.51701E-07  3603   0.677E-04    0.562E-04
RMM:  29    -0.568364696061E+03   -0.44361E-04   -0.38423E-07  3232   0.625E-04    0.458E-04
RMM:  30    -0.568364726706E+03   -0.30646E-04   -0.25492E-07  2929   0.607E-04    0.273E-04
RMM:  31    -0.568364743972E+03   -0.17266E-04   -0.30776E-07  3486   0.645E-04    0.220E-04
RMM:  32    -0.568364748419E+03   -0.44469E-05   -0.13133E-07  2458   0.519E-04
   4 F= -.56836475E+03 E0= -.56828996E+03  d E =-.126476E+01  mag=    71.2842
       N       E                     dE             d eps       ncg     rms          rms(c)
DAV:   1    -0.567846598257E+03    0.51815E+00   -0.16609E+03 12648   0.288E+01    0.316E+00
RMM:   2    -0.569537745798E+03   -0.16911E+01   -0.16283E+01 13098   0.407E+00    0.282E+00
RMM:   3    -0.569736790140E+03   -0.19904E+00   -0.88863E-01 13260   0.843E-01    0.369E+00
RMM:   4    -0.569437819717E+03    0.29897E+00   -0.13532E-01 13089   0.318E-01    0.173E+00
RMM:   5    -0.569436256820E+03    0.15629E-02   -0.10789E-01 13102   0.266E-01    0.232E+00
RMM:   6    -0.569412058966E+03    0.24198E-01   -0.62040E-02 13100   0.200E-01    0.184E+00
RMM:   7    -0.569379492210E+03    0.32567E-01   -0.23511E-02 13154   0.126E-01    0.474E-01
RMM:   8    -0.569380969521E+03   -0.14773E-02   -0.47573E-03 13100   0.538E-02    0.629E-01
RMM:   9    -0.569377991265E+03    0.29783E-02   -0.15897E-03 13109   0.317E-02    0.184E-01
RMM:  10    -0.569377858769E+03    0.13250E-03   -0.62130E-04 13077   0.198E-02    0.237E-01
RMM:  11    -0.569377228948E+03    0.62982E-03   -0.40787E-04 13093   0.163E-02    0.106E-01
RMM:  12    -0.569377089049E+03    0.13990E-03   -0.39171E-04 13057   0.157E-02    0.154E-01
RMM:  13    -0.569376683213E+03    0.40584E-03   -0.25487E-04 12983   0.127E-02    0.223E-02
RMM:  14    -0.569376712415E+03   -0.29202E-04   -0.11158E-05  7939   0.306E-03    0.302E-02
RMM:  15    -0.569376735047E+03   -0.22632E-04   -0.45335E-06  7379   0.198E-03    0.168E-02
RMM:  16    -0.569376908706E+03   -0.17366E-03   -0.99499E-06  7710   0.243E-03    0.120E-02
RMM:  17    -0.569377027363E+03   -0.11866E-03   -0.34349E-06  7459   0.159E-03    0.137E-02
RMM:  18    -0.569377279259E+03   -0.25190E-03   -0.35906E-06  7256   0.128E-03    0.772E-03
RMM:  19    -0.569377883552E+03   -0.60429E-03   -0.94497E-06  6783   0.133E-03    0.648E-03
RMM:  20    -0.569378328116E+03   -0.44456E-03   -0.77824E-06  6617   0.129E-03    0.107E-02
RMM:  21    -0.569378768891E+03   -0.44078E-03   -0.11069E-05  7122   0.146E-03    0.454E-03
RMM:  22    -0.569379062923E+03   -0.29403E-03   -0.65726E-06  6747   0.116E-03    0.480E-03
RMM:  23    -0.569379143596E+03   -0.80673E-04   -0.17066E-06  4545   0.771E-04    0.360E-03
RMM:  24    -0.569379292650E+03   -0.14905E-03   -0.35924E-06  6122   0.957E-04    0.238E-03
RMM:  25    -0.569379395444E+03   -0.10279E-03   -0.21760E-06  3341   0.623E-04    0.181E-03
RMM:  26    -0.569379475613E+03   -0.80169E-04   -0.22500E-06  3654   0.676E-04    0.143E-03
RMM:  27    -0.569379544920E+03   -0.69308E-04   -0.17838E-06  3931   0.733E-04    0.123E-03
RMM:  28    -0.569379635598E+03   -0.90678E-04   -0.12421E-06  4117   0.737E-04    0.826E-04
RMM:  29    -0.569379713802E+03   -0.78204E-04   -0.80437E-07  3777   0.689E-04    0.769E-04
RMM:  30    -0.569379769384E+03   -0.55582E-04   -0.42287E-07  2956   0.612E-04    0.530E-04
RMM:  31    -0.569379818812E+03   -0.49428E-04   -0.64773E-07  4093   0.740E-04    0.531E-04
RMM:  32    -0.569379832704E+03   -0.13892E-04   -0.25293E-07  3108   0.588E-04    0.352E-04
RMM:  33    -0.569379835611E+03   -0.29066E-05   -0.49880E-08  1832   0.483E-04
   5 F= -.56937984E+03 E0= -.56930697E+03  d E =-.227984E+01  mag=    71.2164
       N       E                     dE             d eps       ncg     rms          rms(c)
DAV:   1    -0.564016748565E+03    0.53631E+01   -0.68074E+03 13056   0.593E+01    0.813E+00
RMM:   2    -0.570987179863E+03   -0.69704E+01   -0.66022E+01 13100   0.818E+00    0.651E+00
RMM:   3    -0.572473545971E+03   -0.14864E+01   -0.39636E+00 13222   0.179E+00    0.956E+00
RMM:   4    -0.570355533958E+03    0.21180E+01   -0.81608E-01 13080   0.757E-01    0.333E+00
RMM:   5    -0.570331211457E+03    0.24323E-01   -0.41788E-01 13099   0.528E-01    0.407E+00
RMM:   6    -0.570328166338E+03    0.30451E-02   -0.21230E-01 13102   0.363E-01    0.425E+00
RMM:   7    -0.570160296382E+03    0.16787E+00   -0.70357E-02 13144   0.223E-01    0.760E-01
RMM:   8    -0.570165557455E+03   -0.52611E-02   -0.14820E-02 13078   0.932E-02    0.114E+00
RMM:   9    -0.570155732090E+03    0.98254E-02   -0.57907E-03 13111   0.595E-02    0.282E-01
RMM:  10    -0.570156879669E+03   -0.11476E-02   -0.20223E-03 13100   0.353E-02    0.491E-01
RMM:  11    -0.570154967163E+03    0.19125E-02   -0.12894E-03 13098   0.286E-02    0.220E-01
RMM:  12    -0.570155239750E+03   -0.27259E-03   -0.92440E-04 13105   0.235E-02    0.323E-01
RMM:  13    -0.570154360853E+03    0.87890E-03   -0.46822E-04 13089   0.173E-02    0.421E-02
RMM:  14    -0.570155079885E+03   -0.71903E-03   -0.52172E-05  9271   0.587E-03    0.585E-02
RMM:  15    -0.570155316542E+03   -0.23666E-03   -0.20583E-05  8607   0.367E-03    0.323E-02
RMM:  16    -0.570156418367E+03   -0.11018E-02   -0.16160E-05  8081   0.270E-03    0.217E-02
RMM:  17    -0.570157400845E+03   -0.98248E-03   -0.14668E-05  8122   0.258E-03    0.295E-02
RMM:  18    -0.570158449092E+03   -0.10482E-02   -0.13887E-05  8052   0.254E-03    0.164E-02
RMM:  19    -0.570161214241E+03   -0.27651E-02   -0.45945E-05  8675   0.306E-03    0.126E-02
RMM:  20    -0.570163239691E+03   -0.20255E-02   -0.47212E-05  8516   0.270E-03    0.182E-02
RMM:  21    -0.570163945841E+03   -0.70615E-03   -0.15501E-05  7223   0.182E-03    0.928E-03
RMM:  22    -0.570164783781E+03   -0.83794E-03   -0.25884E-05  8219   0.227E-03    0.745E-03
RMM:  23    -0.570164924623E+03   -0.14084E-03   -0.52963E-06  6676   0.129E-03    0.789E-03
RMM:  24    -0.570165103380E+03   -0.17876E-03   -0.56559E-06  6905   0.119E-03    0.431E-03
RMM:  25    -0.570165314247E+03   -0.21087E-03   -0.46413E-06  4541   0.825E-04    0.361E-03
RMM:  26    -0.570165560844E+03   -0.24660E-03   -0.73713E-06  5728   0.983E-04    0.286E-03
RMM:  27    -0.570165777398E+03   -0.21655E-03   -0.59412E-06  5208   0.918E-04    0.225E-03
RMM:  28    -0.570166051583E+03   -0.27418E-03   -0.45849E-06  5671   0.968E-04    0.153E-03
RMM:  29    -0.570166257861E+03   -0.20628E-03   -0.22092E-06  4746   0.829E-04    0.116E-03
RMM:  30    -0.570166421128E+03   -0.16327E-03   -0.12514E-06  4510   0.796E-04    0.936E-04
RMM:  31    -0.570166534268E+03   -0.11314E-03   -0.10835E-06  4976   0.825E-04    0.545E-04
RMM:  32    -0.570166567934E+03   -0.33666E-04   -0.39131E-07  3558   0.632E-04    0.314E-04
RMM:  33    -0.570166575426E+03   -0.74916E-05   -0.15945E-07  2693   0.529E-04
   6 F= -.57016658E+03 E0= -.57009629E+03  d E =-.306658E+01  mag=    71.1352
       N       E                     dE             d eps       ncg     rms          rms(c)
DAV:   1    -0.570209878981E+03   -0.43311E-01   -0.40143E+02 12664   0.135E+01    0.171E+00
RMM:   2    -0.570675185077E+03   -0.46531E+00   -0.42430E+00 13112   0.200E+00    0.204E+00
RMM:   3    -0.570659731169E+03    0.15454E-01   -0.25326E-01 13347   0.440E-01    0.147E+00
RMM:   4    -0.570620881096E+03    0.38850E-01   -0.37821E-02 13065   0.163E-01    0.113E+00
RMM:   5    -0.570611991094E+03    0.88900E-02   -0.42001E-02 13097   0.151E-01    0.915E-01
RMM:   6    -0.570627961479E+03   -0.15970E-01   -0.22041E-02 13103   0.117E-01    0.167E+00
RMM:   7    -0.570602663245E+03    0.25298E-01   -0.11120E-02 13135   0.873E-02    0.294E-01
RMM:   8    -0.570602783453E+03   -0.12021E-03   -0.24635E-03 13096   0.400E-02    0.429E-01
RMM:   9    -0.570601150760E+03    0.16327E-02   -0.13481E-03 13098   0.293E-02    0.117E-01
RMM:  10    -0.570600891374E+03    0.25939E-03   -0.48606E-04 12648   0.160E-02    0.104E-01
RMM:  11    -0.570600780412E+03    0.11096E-03   -0.10633E-04 11941   0.832E-03    0.586E-02
RMM:  12    -0.570600700051E+03    0.80361E-04   -0.11060E-04 12187   0.818E-03    0.775E-02
RMM:  13    -0.570600592017E+03    0.10803E-03   -0.51012E-05 10746   0.583E-03    0.131E-02
RMM:  14    -0.570600584452E+03    0.75655E-05   -0.12392E-05  7604   0.306E-03
   7 F= -.57060058E+03 E0= -.57053584E+03  d E =-.434009E+00  mag=    71.1638
       N       E                     dE             d eps       ncg     rms          rms(c)
DAV:   1    -0.569865363552E+03    0.73523E+00   -0.16081E+03 12656   0.273E+01    0.381E+00
RMM:   2    -0.571774922578E+03   -0.19096E+01   -0.17317E+01 13112   0.406E+00    0.420E+00
RMM:   3    -0.571746223342E+03    0.28699E-01   -0.10973E+00 13323   0.921E-01    0.331E+00
RMM:   4    -0.571529250578E+03    0.21697E+00   -0.18381E-01 13073   0.356E-01    0.223E+00
RMM:   5    -0.571506160966E+03    0.23090E-01   -0.14612E-01 13098   0.292E-01    0.209E+00
RMM:   6    -0.571540064864E+03   -0.33904E-01   -0.77442E-02 13105   0.218E-01    0.296E+00
RMM:   7    -0.571460032066E+03    0.80033E-01   -0.38429E-02 13141   0.163E-01    0.601E-01
RMM:   8    -0.571461101113E+03   -0.10690E-02   -0.89452E-03 13097   0.736E-02    0.863E-01
RMM:   9    -0.571454300119E+03    0.68010E-02   -0.59958E-03 13096   0.622E-02    0.203E-01
RMM:  10    -0.571454169594E+03    0.13053E-03   -0.12842E-03 13108   0.274E-02    0.262E-01
RMM:  11    -0.571453588505E+03    0.58109E-03   -0.45904E-04 13114   0.172E-02    0.103E-01
RMM:  12    -0.571453670593E+03   -0.82088E-04   -0.22572E-04 12928   0.119E-02    0.145E-01
RMM:  13    -0.571453569797E+03    0.10080E-03   -0.18142E-04 12933   0.108E-02    0.296E-02
RMM:  14    -0.571453934392E+03   -0.36459E-03   -0.45864E-05 10329   0.539E-03    0.426E-02
RMM:  15    -0.571454080482E+03   -0.14609E-03   -0.12245E-05  8094   0.317E-03    0.216E-02
RMM:  16    -0.571454991867E+03   -0.91139E-03   -0.15610E-05  8071   0.236E-03    0.190E-02
RMM:  17    -0.571455618094E+03   -0.62623E-03   -0.12362E-05  8038   0.227E-03    0.251E-02
RMM:  18    -0.571456999008E+03   -0.13809E-02   -0.34314E-05  8430   0.321E-03    0.117E-02
RMM:  19    -0.571458408603E+03   -0.14096E-02   -0.35314E-05  8415   0.250E-03    0.893E-03
RMM:  20    -0.571459157461E+03   -0.74886E-03   -0.19082E-05  7906   0.199E-03    0.148E-02
RMM:  21    -0.571459514209E+03   -0.35675E-03   -0.87700E-06  7549   0.160E-03    0.490E-03
RMM:  22    -0.571459964405E+03   -0.45020E-03   -0.68767E-06  7134   0.140E-03    0.395E-03
RMM:  23    -0.571460136099E+03   -0.17169E-03   -0.18901E-06  4614   0.845E-04    0.465E-03
RMM:  24    -0.571460417233E+03   -0.28113E-03   -0.29363E-06  5159   0.934E-04    0.272E-03
RMM:  25    -0.571460734473E+03   -0.31724E-03   -0.40132E-06  4853   0.884E-04    0.201E-03
RMM:  26    -0.571461019973E+03   -0.28550E-03   -0.46850E-06  5800   0.979E-04    0.161E-03
RMM:  27    -0.571461219629E+03   -0.19966E-03   -0.20994E-06  5014   0.857E-04    0.138E-03
RMM:  28    -0.571461444924E+03   -0.22530E-03   -0.16193E-06  5385   0.900E-04    0.107E-03
RMM:  29    -0.571461595651E+03   -0.15073E-03   -0.11957E-06  4741   0.825E-04    0.690E-04
RMM:  30    -0.571461663907E+03   -0.68255E-04   -0.92179E-07  5336   0.853E-04    0.427E-04
RMM:  31    -0.571461677709E+03   -0.13802E-04   -0.41481E-07  3686   0.614E-04    0.312E-04
RMM:  32    -0.571461679619E+03   -0.19104E-05   -0.12339E-07  2158   0.457E-04
   8 F= -.57146168E+03 E0= -.57141118E+03  d E =-.129510E+01  mag=    71.3644
       N       E                     dE             d eps       ncg     rms          rms(c)
DAV:   1    -0.564369001407E+03    0.70927E+01   -0.67070E+03 12816   0.573E+01    0.103E+01
RMM:   2    -0.572457114094E+03   -0.80881E+01   -0.73338E+01 13132   0.842E+00    0.888E+00
RMM:   3    -0.573560440412E+03   -0.11033E+01   -0.52703E+00 13225   0.205E+00    0.101E+01
RMM:   4    -0.571348787182E+03    0.22117E+01   -0.13119E+00 13086   0.925E-01    0.473E+00
RMM:   5    -0.571470504048E+03   -0.12172E+00   -0.45161E-01 13104   0.555E-01    0.627E+00
RMM:   6    -0.571225118476E+03    0.24539E+00   -0.29153E-01 13107   0.425E-01    0.402E+00
RMM:   7    -0.571079187764E+03    0.14593E+00   -0.10517E-01 13158   0.269E-01    0.157E+00
RMM:   8    -0.571075994713E+03    0.31931E-02   -0.38917E-02 13070   0.147E-01    0.149E+00
RMM:   9    -0.571056198409E+03    0.19796E-01   -0.21061E-02 13098   0.118E-01    0.373E-01
RMM:  10    -0.571057150771E+03   -0.95236E-03   -0.34351E-03 13101   0.457E-02    0.527E-01
RMM:  11    -0.571055359226E+03    0.17915E-02   -0.16216E-03 13126   0.316E-02    0.212E-01
RMM:  12    -0.571056059643E+03   -0.70042E-03   -0.69310E-04 13082   0.198E-02    0.298E-01
RMM:  13    -0.571055752071E+03    0.30757E-03   -0.35631E-04 12989   0.149E-02    0.670E-02
RMM:  14    -0.571056564815E+03   -0.81274E-03   -0.11321E-04 10581   0.788E-03    0.106E-01
RMM:  15    -0.571056804020E+03   -0.23921E-03   -0.57220E-05  9536   0.573E-03    0.463E-02
RMM:  16    -0.571058013106E+03   -0.12091E-02   -0.51222E-05  8648   0.396E-03    0.432E-02
RMM:  17    -0.571058562285E+03   -0.54918E-03   -0.28866E-05  8643   0.334E-03    0.490E-02
RMM:  18    -0.571059486145E+03   -0.92386E-03   -0.77710E-05  8909   0.467E-03    0.282E-02
RMM:  19    -0.571059623162E+03   -0.13702E-03   -0.79567E-05  9253   0.522E-03    0.216E-02
RMM:  20    -0.571059753710E+03   -0.13055E-03   -0.24097E-05  8420   0.295E-03    0.315E-02
RMM:  21    -0.571059972749E+03   -0.21904E-03   -0.11147E-05  7918   0.228E-03    0.126E-02
RMM:  22    -0.571061399615E+03   -0.14269E-02   -0.27824E-05  8356   0.270E-03    0.148E-02
RMM:  23    -0.571061832481E+03   -0.43287E-03   -0.67811E-06  7247   0.155E-03    0.918E-03
RMM:  24    -0.571063128359E+03   -0.12959E-02   -0.19058E-05  7300   0.172E-03    0.668E-03
RMM:  25    -0.571064923096E+03   -0.17947E-02   -0.30461E-05  7784   0.194E-03    0.506E-03
RMM:  26    -0.571066495403E+03   -0.15723E-02   -0.30470E-05  7446   0.184E-03    0.384E-03
RMM:  27    -0.571067425607E+03   -0.93020E-03   -0.10370E-05  5839   0.125E-03    0.300E-03
RMM:  28    -0.571068444772E+03   -0.10192E-02   -0.67467E-06  6071   0.137E-03    0.191E-03
RMM:  29    -0.571068911064E+03   -0.46629E-03   -0.33012E-06  5809   0.111E-03    0.113E-03
RMM:  30    -0.571069104780E+03   -0.19372E-03   -0.20637E-06  6213   0.113E-03    0.708E-04
RMM:  31    -0.571069136041E+03   -0.31261E-04   -0.58412E-07  3611   0.662E-04    0.433E-04
RMM:  32    -0.571069146225E+03   -0.10184E-04   -0.23793E-07  3072   0.583E-04    0.261E-04
RMM:  33    -0.571069150296E+03   -0.40712E-05   -0.85618E-08  2213   0.502E-04
   9 F= -.57106915E+03 E0= -.57105210E+03  d E =-.902575E+00  mag=    71.8279
       N       E                     dE             d eps       ncg     rms          rms(c)
DAV:   1    -0.570380694353E+03    0.68845E+00   -0.13182E+03 12680   0.252E+01    0.380E+00
RMM:   2    -0.571817428207E+03   -0.14367E+01   -0.13274E+01 13096   0.360E+00    0.402E+00
RMM:   3    -0.571811587772E+03    0.58404E-02   -0.78188E-01 13380   0.775E-01    0.287E+00
RMM:   4    -0.571685965482E+03    0.12562E+00   -0.17382E-01 13083   0.343E-01    0.264E+00
RMM:   5    -0.571731435610E+03   -0.45470E-01   -0.18921E-01 13100   0.341E-01    0.345E+00
RMM:   6    -0.571655415361E+03    0.76020E-01   -0.78977E-02 13103   0.220E-01    0.203E+00
RMM:   7    -0.571614510744E+03    0.40905E-01   -0.23564E-02 13148   0.126E-01    0.759E-01
RMM:   8    -0.571612241893E+03    0.22689E-02   -0.80487E-03 13068   0.688E-02    0.736E-01
RMM:   9    -0.571605811080E+03    0.64308E-02   -0.77250E-03 13095   0.674E-02    0.200E-01
RMM:  10    -0.571605739012E+03    0.72068E-04   -0.16722E-03 13114   0.314E-02    0.276E-01
RMM:  11    -0.571605057010E+03    0.68200E-03   -0.62844E-04 13136   0.201E-02    0.103E-01
RMM:  12    -0.571605096704E+03   -0.39693E-04   -0.27724E-04 13072   0.134E-02    0.149E-01
RMM:  13    -0.571604831951E+03    0.26475E-03   -0.23023E-04 12992   0.122E-02    0.243E-02
RMM:  14    -0.571604860758E+03   -0.28807E-04   -0.34364E-05  9425   0.499E-03    0.408E-02
RMM:  15    -0.571604870774E+03   -0.10016E-04   -0.10173E-05  7703   0.309E-03    0.172E-02
RMM:  16    -0.571605018815E+03   -0.14804E-03   -0.67004E-06  7726   0.203E-03    0.146E-02
RMM:  17    -0.571605142584E+03   -0.12377E-03   -0.48848E-06  7605   0.182E-03    0.168E-02
RMM:  18    -0.571605491903E+03   -0.34932E-03   -0.15851E-05  8073   0.262E-03    0.106E-02
RMM:  19    -0.571605931978E+03   -0.44007E-03   -0.17374E-05  7861   0.191E-03    0.905E-03
RMM:  20    -0.571606154849E+03   -0.22287E-03   -0.58624E-06  6535   0.129E-03    0.123E-02
RMM:  21    -0.571606483451E+03   -0.32860E-03   -0.90352E-06  7931   0.160E-03    0.458E-03
RMM:  22    -0.571606849899E+03   -0.36645E-03   -0.58233E-06  6557   0.118E-03    0.309E-03
RMM:  23    -0.571607166590E+03   -0.31669E-03   -0.33420E-06  5117   0.902E-04    0.283E-03
RMM:  24    -0.571607356434E+03   -0.18984E-03   -0.14460E-06  3944   0.734E-04    0.382E-03
RMM:  25    -0.571607579877E+03   -0.22344E-03   -0.17948E-06  4462   0.767E-04    0.200E-03
RMM:  26    -0.571607861505E+03   -0.28163E-03   -0.29200E-06  6259   0.997E-04    0.152E-03
RMM:  27    -0.571608052412E+03   -0.19091E-03   -0.16951E-06  5606   0.902E-04    0.132E-03
RMM:  28    -0.571608197430E+03   -0.14502E-03   -0.88288E-07  4327   0.748E-04    0.860E-04
RMM:  29    -0.571608331944E+03   -0.13451E-03   -0.91839E-07  4870   0.811E-04    0.569E-04
RMM:  30    -0.571608407216E+03   -0.75272E-04   -0.64696E-07  3917   0.702E-04    0.417E-04
RMM:  31    -0.571608435397E+03   -0.28181E-04   -0.47339E-07  4101   0.677E-04    0.225E-04
RMM:  32    -0.571608438880E+03   -0.34824E-05   -0.16381E-07  2594   0.483E-04
  10 F= -.57160844E+03 E0= -.57157630E+03  d E =-.144186E+01  mag=    71.6244
       N       E                     dE             d eps       ncg     rms          rms(c)
DAV:   1    -0.571578375470E+03    0.30060E-01   -0.14522E+02 12464   0.846E+00    0.117E+00
RMM:   2    -0.571731711334E+03   -0.15334E+00   -0.15543E+00 13099   0.122E+00    0.856E-01
RMM:   3    -0.571754595570E+03   -0.22884E-01   -0.85699E-02 13217   0.252E-01    0.118E+00
RMM:   4    -0.571728244880E+03    0.26351E-01   -0.17089E-02 13112   0.110E-01    0.621E-01
RMM:   5    -0.571736985192E+03   -0.87403E-02   -0.15404E-02 13099   0.100E-01    0.121E+00
RMM:   6    -0.571723865544E+03    0.13120E-01   -0.74556E-03 13083   0.701E-02    0.315E-01
RMM:   7    -0.571724039250E+03   -0.17371E-03   -0.17174E-03 13154   0.351E-02    0.316E-01
RMM:   8    -0.571723326778E+03    0.71247E-03   -0.70217E-04 13053   0.200E-02    0.129E-01
RMM:   9    -0.571723044751E+03    0.28203E-03   -0.43027E-04 12697   0.154E-02    0.513E-02
RMM:  10    -0.571723042446E+03    0.23046E-05   -0.11235E-04 12413   0.824E-03    0.750E-02
RMM:  11    -0.571722984353E+03    0.58093E-04   -0.71566E-05 12222   0.656E-03    0.270E-02
RMM:  12    -0.571722982643E+03    0.17102E-05   -0.14971E-05  8167   0.333E-03
  11 F= -.57172298E+03 E0= -.57169344E+03  d E =-.114544E+00  mag=    71.6392
       N       E                     dE             d eps       ncg     rms          rms(c)
DAV:   1    -0.571719054823E+03    0.39295E-02   -0.18423E+00 12656   0.954E-01    0.135E-01
RMM:   2    -0.571720991997E+03   -0.19372E-02   -0.19552E-02 12447   0.138E-01    0.986E-02
RMM:   3    -0.571721280629E+03   -0.28863E-03   -0.10675E-03 13217   0.282E-02    0.134E-01
RMM:   4    -0.571720957560E+03    0.32307E-03   -0.23305E-04 13093   0.128E-02    0.746E-02
RMM:   5    -0.571720993552E+03   -0.35992E-04   -0.21282E-04 12579   0.117E-02    0.104E-01
RMM:   6    -0.571720912436E+03    0.81116E-04   -0.70801E-05 10558   0.689E-03    0.486E-02
RMM:   7    -0.571720912528E+03   -0.92899E-07   -0.25419E-05  8636   0.457E-03
  12 F= -.57172091E+03 E0= -.57169166E+03  d E =-.112474E+00  mag=    71.6468
       N       E                     dE             d eps       ncg     rms          rms(c)
DAV:   1    -0.571693657928E+03    0.27255E-01   -0.90243E+01 12528   0.667E+00    0.867E-01
RMM:   2    -0.571785167066E+03   -0.91509E-01   -0.94717E-01 13022   0.958E-01    0.582E-01
RMM:   3    -0.571787283669E+03   -0.21166E-02   -0.44387E-02 13205   0.178E-01    0.552E-01
RMM:   4    -0.571788215373E+03   -0.93170E-03   -0.75713E-03 13157   0.744E-02    0.640E-01
RMM:   5    -0.571783576394E+03    0.46390E-02   -0.10213E-02 13096   0.793E-02    0.398E-01
RMM:   6    -0.571783601596E+03   -0.25202E-04   -0.23141E-03 13076   0.385E-02    0.396E-01
RMM:   7    -0.571782843239E+03    0.75836E-03   -0.10118E-03 13124   0.271E-02    0.247E-01
RMM:   8    -0.571782357415E+03    0.48582E-03   -0.37103E-04 13004   0.149E-02    0.956E-02
RMM:   9    -0.571782197192E+03    0.16022E-03   -0.25755E-04 12430   0.118E-02    0.433E-02
RMM:  10    -0.571782195021E+03    0.21708E-05   -0.89124E-05 12252   0.733E-03
  13 F= -.57178220E+03 E0= -.57175312E+03  d E =-.612825E-01  mag=    71.6524
       N       E                     dE             d eps       ncg     rms          rms(c)
DAV:   1    -0.571781923855E+03    0.27334E-03   -0.43509E-02 12928   0.150E-01    0.232E-02
RMM:   2    -0.571782020520E+03   -0.96665E-04   -0.48716E-04 12433   0.228E-02    0.701E-02
RMM:   3    -0.571781981617E+03    0.38903E-04   -0.37310E-05  9308   0.579E-03    0.200E-02
RMM:   4    -0.571781987012E+03   -0.53950E-05   -0.62614E-06  7234   0.255E-03
  14 F= -.57178199E+03 E0= -.57175293E+03  d E =-.610745E-01  mag=    71.6537
       N       E                     dE             d eps       ncg     rms          rms(c)
DAV:   1    -0.571761388907E+03    0.20593E-01   -0.62888E+01 12456   0.553E+00    0.834E-01
RMM:   2    -0.571825491865E+03   -0.64103E-01   -0.66451E-01 13090   0.795E-01    0.612E-01
RMM:   3    -0.571830737996E+03   -0.52461E-02   -0.33737E-02 13202   0.157E-01    0.697E-01
RMM:   4    -0.571826285302E+03    0.44527E-02   -0.74004E-03 13121   0.715E-02    0.526E-01
RMM:   5    -0.571825565972E+03    0.71933E-03   -0.84092E-03 13085   0.715E-02    0.552E-01
RMM:   6    -0.571823277682E+03    0.22883E-02   -0.22514E-03 13097   0.378E-02    0.281E-01
RMM:   7    -0.571823512325E+03   -0.23464E-03   -0.83211E-04 13125   0.239E-02    0.292E-01
RMM:   8    -0.571822763499E+03    0.74883E-03   -0.37652E-04 12970   0.150E-02    0.764E-02
RMM:   9    -0.571822673434E+03    0.90065E-04   -0.23748E-04 12428   0.112E-02    0.555E-02
RMM:  10    -0.571822652652E+03    0.20782E-04   -0.59865E-05 10692   0.612E-03    0.390E-02
RMM:  11    -0.571822643452E+03    0.91994E-05   -0.59579E-05 11137   0.576E-03
  15 F= -.57182264E+03 E0= -.57179406E+03  d E =-.406564E-01  mag=    71.6573
       N       E                     dE             d eps       ncg     rms          rms(c)
DAV:   1    -0.571823239019E+03   -0.58637E-03   -0.34631E+00 12504   0.130E+00    0.209E-01
RMM:   2    -0.571826885169E+03   -0.36462E-02   -0.36883E-02 12540   0.188E-01    0.174E-01
RMM:   3    -0.571828008599E+03   -0.11234E-02   -0.23532E-03 13221   0.423E-02    0.367E-01
RMM:   4    -0.571826742162E+03    0.12664E-02   -0.55164E-04 13102   0.203E-02    0.109E-01
RMM:   5    -0.571827356050E+03   -0.61389E-03   -0.45391E-04 13080   0.164E-02    0.192E-01
RMM:   6    -0.571826664318E+03    0.69173E-03   -0.36109E-04 13079   0.150E-02    0.298E-02
RMM:   7    -0.571826700267E+03   -0.35949E-04   -0.34523E-05  9190   0.526E-03    0.495E-02
RMM:   8    -0.571826684918E+03    0.15349E-04   -0.16674E-05  8432   0.356E-03    0.218E-02
RMM:   9    -0.571826686425E+03   -0.15063E-05   -0.10313E-05  7347   0.266E-03
  16 F= -.57182669E+03 E0= -.57179799E+03  d E =-.446994E-01  mag=    71.6593
       N       E                     dE             d eps       ncg     rms          rms(c)
DAV:   1    -0.571826671195E+03    0.13724E-04   -0.33844E-01 12696   0.407E-01    0.626E-02
RMM:   2    -0.571827019487E+03   -0.34829E-03   -0.34988E-03 12368   0.582E-02    0.485E-02
RMM:   3    -0.571827078037E+03   -0.58550E-04   -0.20092E-04 12598   0.123E-02    0.813E-02
RMM:   4    -0.571827019349E+03    0.58688E-04   -0.43457E-05  9321   0.578E-03    0.428E-02
RMM:   5    -0.571827076607E+03   -0.57258E-04   -0.44111E-05  9501   0.543E-03    0.750E-02
RMM:   6    -0.571827011173E+03    0.65434E-04   -0.39355E-05  9626   0.548E-03    0.158E-02
RMM:   7    -0.571827019529E+03   -0.83557E-05   -0.91006E-06  7438   0.289E-03
  17 F= -.57182702E+03 E0= -.57179833E+03  d E =-.450325E-01  mag=    71.6605
       N       E                     dE             d eps       ncg     rms          rms(c)
DAV:   1    -0.571828122771E+03   -0.11116E-02   -0.16612E+01 12456   0.288E+00    0.380E-01
RMM:   2    -0.571845021304E+03   -0.16899E-01   -0.17274E-01 12581   0.412E-01    0.279E-01
RMM:   3    -0.571846690226E+03   -0.16689E-02   -0.87724E-03 13217   0.805E-02    0.336E-01
RMM:   4    -0.571844953724E+03    0.17365E-02   -0.16249E-03 13104   0.340E-02    0.222E-01
RMM:   5    -0.571845474891E+03   -0.52117E-03   -0.19343E-03 13096   0.354E-02    0.370E-01
RMM:   6    -0.571844299216E+03    0.11757E-02   -0.72437E-04 13071   0.219E-02    0.114E-01
RMM:   7    -0.571844323513E+03   -0.24297E-04   -0.18368E-04 12657   0.118E-02    0.855E-02
RMM:   8    -0.571844275465E+03    0.48048E-04   -0.57878E-05  9702   0.600E-03    0.505E-02
RMM:   9    -0.571844234499E+03    0.40966E-04   -0.59061E-05 11578   0.590E-03    0.193E-02
RMM:  10    -0.571844233048E+03    0.14509E-05   -0.19562E-05  7658   0.370E-03
  18 F= -.57184423E+03 E0= -.57181604E+03  d E =-.172135E-01  mag=    71.6630
       N       E                     dE             d eps       ncg     rms          rms(c)
DAV:   1    -0.571845336734E+03   -0.11022E-02   -0.63986E-01 12520   0.567E-01    0.755E-02
RMM:   2    -0.571845990734E+03   -0.65400E-03   -0.66007E-03 12414   0.807E-02    0.621E-02
RMM:   3    -0.571846111921E+03   -0.12119E-03   -0.37521E-04 12891   0.169E-02    0.115E-01
RMM:   4    -0.571845974318E+03    0.13760E-03   -0.69772E-05 10508   0.745E-03    0.489E-02
RMM:   5    -0.571846027275E+03   -0.52957E-04   -0.50754E-05  9971   0.581E-03    0.692E-02
RMM:   6    -0.571845952083E+03    0.75191E-04   -0.72957E-05 12284   0.688E-03    0.134E-02
RMM:   7    -0.571845959811E+03   -0.77277E-05   -0.10140E-05  7415   0.288E-03
  19 F= -.57184596E+03 E0= -.57181767E+03  d E =-.189403E-01  mag=    71.6641
       N       E                     dE             d eps       ncg     rms          rms(c)
DAV:   1    -0.571846842410E+03   -0.89033E-03   -0.56148E+00 12480   0.168E+00    0.215E-01
RMM:   2    -0.571852321474E+03   -0.54791E-02   -0.56360E-02 12444   0.237E-01    0.133E-01
RMM:   3    -0.571852334079E+03   -0.12605E-04   -0.22223E-03 13062   0.412E-02    0.145E-01
RMM:   4    -0.571852375312E+03   -0.41233E-04   -0.38606E-04 13221   0.174E-02    0.174E-01
RMM:   5    -0.571852401604E+03   -0.26291E-04   -0.64047E-04 13068   0.204E-02    0.194E-01
RMM:   6    -0.571852095481E+03    0.30612E-03   -0.22270E-04 13038   0.121E-02    0.467E-02
RMM:   7    -0.571852107212E+03   -0.11731E-04   -0.28008E-05  8794   0.475E-03    0.459E-02
RMM:   8    -0.571852090804E+03    0.16409E-04   -0.14963E-05  8266   0.326E-03    0.178E-02
RMM:   9    -0.571852085873E+03    0.49303E-05   -0.11119E-05  7124   0.262E-03
  20 F= -.57185209E+03 E0= -.57182374E+03  d E =-.612606E-02  mag=    71.6650
       N       E                     dE             d eps       ncg     rms          rms(c)
DAV:   1    -0.571851358769E+03    0.73204E-03   -0.10049E-01 12712   0.226E-01    0.321E-02
RMM:   2    -0.571851503111E+03   -0.14434E-03   -0.10659E-03 12449   0.330E-02    0.706E-02
RMM:   3    -0.571851470133E+03    0.32978E-04   -0.71605E-05 11830   0.762E-03    0.379E-02
RMM:   4    -0.571851462457E+03    0.76756E-05   -0.10743E-05  7500   0.310E-03
  21 F= -.57185146E+03 E0= -.57182308E+03  d E =-.550265E-02  mag=    71.6651
       N       E                     dE             d eps       ncg     rms          rms(c)
DAV:   1    -0.571855166984E+03   -0.36969E-02   -0.42228E+00 12464   0.146E+00    0.206E-01
RMM:   2    -0.571859413698E+03   -0.42467E-02   -0.42714E-02 12467   0.206E-01    0.151E-01
RMM:   3    -0.571860130343E+03   -0.71664E-03   -0.22092E-03 13172   0.411E-02    0.252E-01
RMM:   4    -0.571859261472E+03    0.86887E-03   -0.52909E-04 13116   0.194E-02    0.119E-01
RMM:   5    -0.571859710292E+03   -0.44882E-03   -0.33329E-04 13072   0.145E-02    0.230E-01
RMM:   6    -0.571859155129E+03    0.55516E-03   -0.44826E-04 13081   0.174E-02    0.605E-02
RMM:   7    -0.571859176149E+03   -0.21020E-04   -0.73465E-05 10359   0.698E-03    0.633E-02
RMM:   8    -0.571859137871E+03    0.38278E-04   -0.21174E-05  8552   0.402E-03    0.126E-02
RMM:   9    -0.571859136623E+03    0.12474E-05   -0.11367E-05  7158   0.279E-03
  22 F= -.57185914E+03 E0= -.57183042E+03  d E =-.767417E-02  mag=    71.6643
       N       E                     dE             d eps       ncg     rms          rms(c)
DAV:   1    -0.571857746181E+03    0.13917E-02   -0.22034E+00 12480   0.105E+00    0.147E-01
RMM:   2    -0.571859939019E+03   -0.21928E-02   -0.22542E-02 12434   0.149E-01    0.923E-02
RMM:   3    -0.571860117533E+03   -0.17851E-03   -0.98370E-04 13131   0.272E-02    0.126E-01
RMM:   4    -0.571859930662E+03    0.18687E-03   -0.20124E-04 13153   0.121E-02    0.894E-02
RMM:   5    -0.571860177728E+03   -0.24707E-03   -0.21642E-04 13055   0.119E-02    0.173E-01
RMM:   6    -0.571859836301E+03    0.34143E-03   -0.15988E-04 13037   0.104E-02    0.247E-02
RMM:   7    -0.571859872709E+03   -0.36408E-04   -0.28983E-05  8873   0.442E-03    0.565E-02
RMM:   8    -0.571859843139E+03    0.29570E-04   -0.13559E-05  8212   0.318E-03    0.801E-03
RMM:   9    -0.571859842564E+03    0.57431E-06   -0.56006E-06  6946   0.190E-03
  23 F= -.57185984E+03 E0= -.57183087E+03  d E =-.838011E-02  mag=    71.6628
       N       E                     dE             d eps       ncg     rms          rms(c)
DAV:   1    -0.571839322358E+03    0.20521E-01   -0.88167E+00 12432   0.211E+00    0.291E-01
RMM:   2    -0.571848092952E+03   -0.87706E-02   -0.89735E-02 12448   0.297E-01    0.187E-01
RMM:   3    -0.571848982488E+03   -0.88954E-03   -0.39588E-03 13178   0.547E-02    0.274E-01
RMM:   4    -0.571848036959E+03    0.94553E-03   -0.81547E-04 13154   0.242E-02    0.187E-01
RMM:   5    -0.571848930676E+03   -0.89372E-03   -0.73058E-04 13090   0.215E-02    0.316E-01
RMM:   6    -0.571847651101E+03    0.12796E-02   -0.77861E-04 13087   0.228E-02    0.345E-02
RMM:   7    -0.571847717625E+03   -0.66524E-04   -0.62530E-05 10317   0.695E-03    0.720E-02
RMM:   8    -0.571847676842E+03    0.40783E-04   -0.28663E-05  8811   0.449E-03    0.211E-02
RMM:   9    -0.571847671609E+03    0.52332E-05   -0.18285E-05  7492   0.352E-03
  24 F= -.57184767E+03 E0= -.57181819E+03  d E =0.379085E-02  mag=    71.6598
       N       E                     dE             d eps       ncg     rms          rms(c)
DAV:   1    -0.571854315224E+03   -0.66384E-02   -0.46771E+00 12464   0.154E+00    0.209E-01
RMM:   2    -0.571858981353E+03   -0.46661E-02   -0.47133E-02 12448   0.216E-01    0.148E-01
RMM:   3    -0.571859835543E+03   -0.85419E-03   -0.23066E-03 13179   0.423E-02    0.289E-01
RMM:   4    -0.571858873657E+03    0.96189E-03   -0.51454E-04 13145   0.196E-02    0.134E-01
RMM:   5    -0.571859193841E+03   -0.32018E-03   -0.32403E-04 13057   0.141E-02    0.177E-01
RMM:   6    -0.571858711918E+03    0.48192E-03   -0.49321E-04 13027   0.175E-02    0.261E-02
RMM:   7    -0.571858748114E+03   -0.36196E-04   -0.37923E-05  9210   0.542E-03    0.603E-02
RMM:   8    -0.571858719363E+03    0.28751E-04   -0.18389E-05  8465   0.375E-03    0.174E-02
RMM:   9    -0.571858720135E+03   -0.77207E-06   -0.90254E-06  7239   0.257E-03
  25 F= -.57185872E+03 E0= -.57182962E+03  d E =-.725768E-02  mag=    71.6590
       N       E                     dE             d eps       ncg     rms          rms(c)
DAV:   1    -0.571859423851E+03   -0.70449E-03   -0.13735E-01 12624   0.265E-01    0.389E-02
RMM:   2    -0.571859564919E+03   -0.14107E-03   -0.14525E-03 12329   0.376E-02    0.253E-02
RMM:   3    -0.571859595152E+03   -0.30233E-04   -0.72611E-05 12025   0.764E-03    0.610E-02
RMM:   4    -0.571859563441E+03    0.31711E-04   -0.15516E-05  8307   0.359E-03    0.194E-02
RMM:   5    -0.571859573141E+03   -0.96997E-05   -0.10968E-05  7876   0.282E-03
  26 F= -.57185957E+03 E0= -.57183055E+03  d E =-.811068E-02  mag=    71.6588
       N       E                     dE             d eps       ncg     rms          rms(c)
DAV:   1    -0.571861727770E+03   -0.21643E-02   -0.42672E+00 12464   0.147E+00    0.195E-01
RMM:   2    -0.571866096880E+03   -0.43691E-02   -0.44043E-02 12446   0.209E-01    0.150E-01
RMM:   3    -0.571866666029E+03   -0.56915E-03   -0.24061E-03 13242   0.425E-02    0.198E-01
RMM:   4    -0.571865985163E+03    0.68087E-03   -0.47544E-04 13096   0.185E-02    0.111E-01
RMM:   5    -0.571866222204E+03   -0.23704E-03   -0.53662E-04 13073   0.187E-02    0.199E-01
RMM:   6    -0.571865860237E+03    0.36197E-03   -0.22940E-04 13001   0.122E-02    0.587E-02
RMM:   7    -0.571865924221E+03   -0.63985E-04   -0.74696E-05 10348   0.702E-03    0.976E-02
RMM:   8    -0.571865839349E+03    0.84873E-04   -0.34068E-05  9018   0.493E-03    0.171E-02
RMM:   9    -0.571865834163E+03    0.51858E-05   -0.15008E-05  7362   0.309E-03
  27 F= -.57186583E+03 E0= -.57183640E+03  d E =-.626102E-02  mag=    71.6569
       N       E                     dE             d eps       ncg     rms          rms(c)
DAV:   1    -0.571865917758E+03   -0.78409E-04   -0.17811E-01 12592   0.300E-01    0.427E-02
RMM:   2    -0.571866111275E+03   -0.19352E-03   -0.19219E-03 12443   0.435E-02    0.477E-02
RMM:   3    -0.571866137890E+03   -0.26615E-04   -0.13134E-04 12644   0.101E-02    0.684E-02
RMM:   4    -0.571866102406E+03    0.35484E-04   -0.21873E-05  8633   0.427E-03    0.328E-02
RMM:   5    -0.571866098908E+03    0.34985E-05   -0.10710E-05  7864   0.287E-03
  28 F= -.57186610E+03 E0= -.57183659E+03  d E =-.652577E-02  mag=    71.6558
       N       E                     dE             d eps       ncg     rms          rms(c)
DAV:   1    -0.571875637440E+03   -0.95350E-02   -0.25055E+00 12472   0.113E+00    0.132E-01
RMM:   2    -0.571878132264E+03   -0.24948E-02   -0.25256E-02 12440   0.159E-01    0.103E-01
RMM:   3    -0.571878390566E+03   -0.25830E-03   -0.13420E-03 13225   0.324E-02    0.182E-01
RMM:   4    -0.571878065314E+03    0.32525E-03   -0.21037E-04 13102   0.129E-02    0.644E-02
RMM:   5    -0.571878247104E+03   -0.18179E-03   -0.22305E-04 13030   0.121E-02    0.147E-01
RMM:   6    -0.571878022861E+03    0.22424E-03   -0.16931E-04 12977   0.107E-02    0.512E-02
RMM:   7    -0.571878036974E+03   -0.14113E-04   -0.40627E-05  9210   0.528E-03    0.496E-02
RMM:   8    -0.571878010447E+03    0.26526E-04   -0.11533E-05  7576   0.325E-03    0.124E-02
RMM:   9    -0.571878010383E+03    0.64116E-07   -0.38343E-06  7063   0.175E-03
  29 F= -.57187801E+03 E0= -.57184862E+03  d E =-.119115E-01  mag=    71.6549
       N       E                     dE             d eps       ncg     rms          rms(c)
DAV:   1    -0.571878872544E+03   -0.86210E-03   -0.35656E-02 12768   0.135E-01    0.180E-02
RMM:   2    -0.571878910045E+03   -0.37501E-04   -0.38726E-04 12079   0.194E-02    0.153E-02
RMM:   3    -0.571878918248E+03   -0.82028E-05   -0.19991E-05  7672   0.436E-03
  30 F= -.57187892E+03 E0= -.57184952E+03  d E =-.128193E-01  mag=    71.6547
       N       E                     dE             d eps       ncg     rms          rms(c)
DAV:   1    -0.571880174239E+03   -0.12642E-02   -0.14381E-01 12464   0.272E-01    0.350E-02
RMM:   2    -0.571880338359E+03   -0.16412E-03   -0.14227E-03 12451   0.385E-02    0.566E-02
RMM:   3    -0.571880331021E+03    0.73380E-05   -0.88314E-05 12300   0.834E-03
  31 F= -.57188033E+03 E0= -.57185097E+03  d E =-.142321E-01  mag=    71.6546
       N       E                     dE             d eps       ncg     rms          rms(c)
DAV:   1    -0.571885705330E+03   -0.53670E-02   -0.24351E+00 12464   0.110E+00    0.147E-01
RMM:   2    -0.571888245144E+03   -0.25398E-02   -0.24837E-02 12523   0.157E-01    0.134E-01
RMM:   3    -0.571888566554E+03   -0.32141E-03   -0.15547E-03 13213   0.334E-02    0.196E-01
RMM:   4    -0.571888124124E+03    0.44243E-03   -0.28217E-04 13084   0.146E-02    0.100E-01
RMM:   5    -0.571888205804E+03   -0.81680E-04   -0.14309E-04 12779   0.942E-03    0.128E-01
RMM:   6    -0.571888063555E+03    0.14225E-03   -0.30797E-04 12878   0.141E-02    0.663E-02
RMM:   7    -0.571888044000E+03    0.19555E-04   -0.55170E-05  9706   0.607E-03    0.405E-02
RMM:   8    -0.571888029517E+03    0.14483E-04   -0.10043E-05  7457   0.301E-03    0.126E-02
RMM:   9    -0.571888029178E+03    0.33897E-06   -0.51946E-06  7051   0.198E-03
  32 F= -.57188803E+03 E0= -.57185889E+03  d E =-.769816E-02  mag=    71.6551
       N       E                     dE             d eps       ncg     rms          rms(c)
DAV:   1    -0.571888984420E+03   -0.95490E-03   -0.21392E+00 12432   0.103E+00    0.135E-01
RMM:   2    -0.571891154297E+03   -0.21699E-02   -0.22230E-02 12436   0.147E-01    0.910E-02
RMM:   3    -0.571891421300E+03   -0.26700E-03   -0.11388E-03 13165   0.285E-02    0.162E-01
RMM:   4    -0.571891143008E+03    0.27829E-03   -0.19353E-04 13099   0.122E-02    0.848E-02
RMM:   5    -0.571891301891E+03   -0.15888E-03   -0.15308E-04 12890   0.971E-03    0.125E-01
RMM:   6    -0.571891066932E+03    0.23496E-03   -0.18927E-04 12627   0.110E-02    0.194E-02
RMM:   7    -0.571891089520E+03   -0.22589E-04   -0.24898E-05  8678   0.436E-03    0.451E-02
RMM:   8    -0.571891073628E+03    0.15893E-04   -0.11541E-05  7899   0.307E-03    0.113E-02
RMM:   9    -0.571891071342E+03    0.22856E-05   -0.40678E-06  6980   0.167E-03
  33 F= -.57189107E+03 E0= -.57186213E+03  d E =-.107403E-01  mag=    71.6564
       N       E                     dE             d eps       ncg     rms          rms(c)
DAV:   1    -0.571890821398E+03    0.25223E-03   -0.22082E-01 12528   0.332E-01    0.422E-02
RMM:   2    -0.571891048549E+03   -0.22715E-03   -0.22264E-03 12400   0.470E-02    0.422E-02
RMM:   3    -0.571891083955E+03   -0.35406E-04   -0.13850E-04 12465   0.101E-02    0.718E-02
RMM:   4    -0.571891036252E+03    0.47703E-04   -0.22260E-05  8609   0.435E-03    0.271E-02
RMM:   5    -0.571891041868E+03   -0.56166E-05   -0.14589E-05  8194   0.332E-03
  34 F= -.57189104E+03 E0= -.57186201E+03  d E =-.107108E-01  mag=    71.6569
       N       E                     dE             d eps       ncg     rms          rms(c)
DAV:   1    -0.571892849218E+03   -0.18130E-02   -0.16339E+00 12464   0.887E-01    0.112E-01
RMM:   2    -0.571894642839E+03   -0.17936E-02   -0.17916E-02 12451   0.129E-01    0.988E-02
RMM:   3    -0.571894848059E+03   -0.20522E-03   -0.11878E-03 13223   0.285E-02    0.146E-01
RMM:   4    -0.571894595547E+03    0.25251E-03   -0.17400E-04 13013   0.114E-02    0.644E-02
RMM:   5    -0.571894732479E+03   -0.13693E-03   -0.11755E-04 12661   0.856E-03    0.129E-01
RMM:   6    -0.571894568538E+03    0.16394E-03   -0.16076E-04 12710   0.102E-02    0.527E-02
RMM:   7    -0.571894569713E+03   -0.11747E-05   -0.43988E-05  9435   0.548E-03
  35 F= -.57189457E+03 E0= -.57186566E+03  d E =-.352784E-02  mag=    71.6575
       N       E                     dE             d eps       ncg     rms          rms(c)
DAV:   1    -0.571894483524E+03    0.85014E-04   -0.18148E-02 12760   0.968E-02    0.206E-02
RMM:   2    -0.571894502545E+03   -0.19021E-04   -0.25877E-04 11931   0.147E-02    0.169E-02
RMM:   3    -0.571894514293E+03   -0.11748E-04   -0.22442E-05  8273   0.424E-03    0.383E-02
RMM:   4    -0.571894503104E+03    0.11189E-04   -0.76685E-06  7222   0.275E-03    0.128E-02
RMM:   5    -0.571894503079E+03    0.24535E-07   -0.24519E-06  6802   0.147E-03
  36 F= -.57189450E+03 E0= -.57186565E+03  d E =-.346121E-02  mag=    71.6577
       N       E                     dE             d eps       ncg     rms          rms(c)
DAV:   1    -0.571896476937E+03   -0.19738E-02   -0.46754E-01 12464   0.480E-01    0.585E-02
RMM:   2    -0.571896931253E+03   -0.45432E-03   -0.45978E-03 12391   0.673E-02    0.411E-02
RMM:   3    -0.571896978276E+03   -0.47023E-04   -0.21072E-04 12537   0.127E-02    0.725E-02
RMM:   4    -0.571896920735E+03    0.57541E-04   -0.33016E-05  9053   0.524E-03    0.336E-02
RMM:   5    -0.571896951385E+03   -0.30650E-04   -0.27605E-05  8913   0.448E-03    0.613E-02
RMM:   6    -0.571896908878E+03    0.42507E-04   -0.52131E-05 11223   0.604E-03    0.161E-02
RMM:   7    -0.571896913265E+03   -0.43868E-05   -0.79262E-06  7401   0.256E-03
  37 F= -.57189691E+03 E0= -.57186802E+03  d E =-.241019E-02  mag=    71.6578
       N       E                     dE             d eps       ncg     rms          rms(c)
DAV:   1    -0.571893035947E+03    0.38729E-02   -0.21355E+00 12448   0.102E+00    0.126E-01
RMM:   2    -0.571895099164E+03   -0.20632E-02   -0.21194E-02 12429   0.144E-01    0.778E-02
RMM:   3    -0.571895139668E+03   -0.40504E-04   -0.83663E-04 12559   0.248E-02    0.827E-02
RMM:   4    -0.571895108798E+03    0.30870E-04   -0.13092E-04 12910   0.989E-03    0.775E-02
RMM:   5    -0.571895040629E+03    0.68169E-04   -0.25265E-04 12438   0.123E-02    0.470E-02
RMM:   6    -0.571895041265E+03   -0.63560E-06   -0.40245E-05  9267   0.522E-03
  38 F= -.57189504E+03 E0= -.57186605E+03  d E =-.538186E-03  mag=    71.6570
       N       E                     dE             d eps       ncg     rms          rms(c)
DAV:   1    -0.571896707409E+03   -0.16668E-02   -0.28297E-01 12488   0.377E-01    0.525E-02
RMM:   2    -0.571897347027E+03   -0.63962E-03   -0.28291E-03 13069   0.556E-02    0.208E-01
RMM:   3    -0.571896959038E+03    0.38799E-03   -0.24738E-04 13218   0.140E-02    0.413E-02
RMM:   4    -0.571896967019E+03   -0.79809E-05   -0.26639E-05  8731   0.475E-03
  39 F= -.57189697E+03 E0= -.57186801E+03  d E =-.246394E-02  mag=    71.6570
       N       E                     dE             d eps       ncg     rms          rms(c)
DAV:   1    -0.571896689967E+03    0.26907E-03   -0.23047E-01 12472   0.341E-01    0.459E-02
RMM:   2    -0.571896955315E+03   -0.26535E-03   -0.25115E-03 12452   0.494E-02    0.670E-02
RMM:   3    -0.571896956817E+03   -0.15023E-05   -0.15982E-04 12880   0.110E-02    0.625E-02
RMM:   4    -0.571896929625E+03    0.27192E-04   -0.26818E-05  8691   0.451E-03    0.355E-02
RMM:   5    -0.571896922069E+03    0.75566E-05   -0.87690E-06  7509   0.277E-03
  40 F= -.57189692E+03 E0= -.57186795E+03  d E =0.449506E-04  mag=    71.6566
       N       E                     dE             d eps       ncg     rms          rms(c)
DAV:   1    -0.571896547361E+03    0.38226E-03   -0.48755E-02 12560   0.158E-01    0.328E-02
RMM:   2    -0.571896751062E+03   -0.20370E-03   -0.60596E-04 12955   0.250E-02    0.118E-01
RMM:   3    -0.571896588049E+03    0.16301E-03   -0.85954E-05 11384   0.779E-03    0.184E-02
RMM:   4    -0.571896597447E+03   -0.93978E-05   -0.89329E-06  7531   0.276E-03
  41 F= -.57189660E+03 E0= -.57186764E+03  d E =0.369572E-03  mag=    71.6566
       N       E                     dE             d eps       ncg     rms          rms(c)
DAV:   1    -0.571896747630E+03   -0.15958E-03   -0.24184E-01 12464   0.349E-01    0.506E-02
RMM:   2    -0.571897003489E+03   -0.25586E-03   -0.24321E-03 12439   0.494E-02    0.561E-02
RMM:   3    -0.571897047986E+03   -0.44497E-04   -0.14082E-04 12592   0.105E-02    0.877E-02
RMM:   4    -0.571896976914E+03    0.71072E-04   -0.29828E-05  8875   0.494E-03    0.270E-02
RMM:   5    -0.571896996123E+03   -0.19209E-04   -0.25388E-05  8744   0.430E-03    0.525E-02
RMM:   6    -0.571896973267E+03    0.22856E-04   -0.34164E-05  9476   0.511E-03    0.966E-03
RMM:   7    -0.571896975659E+03   -0.23923E-05   -0.49522E-06  7205   0.216E-03
  42 F= -.57189698E+03 E0= -.57186801E+03  d E =-.378212E-03  mag=    71.6565
       N       E                     dE             d eps       ncg     rms          rms(c)
DAV:   1    -0.571896901077E+03    0.72190E-04   -0.20564E-02 12720   0.102E-01    0.157E-02
RMM:   2    -0.571896923304E+03   -0.22227E-04   -0.22574E-04 11822   0.147E-02    0.148E-02
RMM:   3    -0.571896930372E+03   -0.70681E-05   -0.11877E-05  7294   0.335E-03
  43 F= -.57189693E+03 E0= -.57186797E+03  d E =-.332925E-03  mag=    71.6564
       N       E                     dE             d eps       ncg     rms          rms(c)
DAV:   1    -0.571896513652E+03    0.40965E-03   -0.82975E-02 12456   0.205E-01    0.311E-02
RMM:   2    -0.571896612359E+03   -0.98707E-04   -0.83079E-04 12399   0.291E-02    0.416E-02
RMM:   3    -0.571896606620E+03    0.57392E-05   -0.47723E-05 10448   0.622E-03
  44 F= -.57189661E+03 E0= -.57186767E+03  d E =-.917289E-05  mag=    71.6565
       N       E                     dE             d eps       ncg     rms          rms(c)
DAV:   1    -0.571896829864E+03   -0.21751E-03   -0.38848E-02 12496   0.143E-01    0.322E-02
RMM:   2    -0.571897136463E+03   -0.30660E-03   -0.56621E-04 12981   0.239E-02    0.159E-01
RMM:   3    -0.571896857549E+03    0.27891E-03   -0.96305E-05 11280   0.827E-03    0.250E-02
RMM:   4    -0.571896868827E+03   -0.11278E-04   -0.12366E-05  7841   0.329E-03    0.206E-02
RMM:   5    -0.571896861915E+03    0.69111E-05   -0.30734E-06  7024   0.175E-03
  45 F= -.57189686E+03 E0= -.57186792E+03  d E =-.264469E-03  mag=    71.6564
       N       E                     dE             d eps       ncg     rms          rms(c)
DAV:   1    -0.571897335234E+03   -0.46641E-03   -0.10182E-01 12480   0.226E-01    0.270E-02
RMM:   2    -0.571897443607E+03   -0.10837E-03   -0.10390E-03 12419   0.322E-02    0.352E-02
RMM:   3    -0.571897448394E+03   -0.47872E-05   -0.61969E-05 10925   0.686E-03
  46 F= -.57189745E+03 E0= -.57186853E+03  d E =-.586479E-03  mag=    71.6563
       N       E                     dE             d eps       ncg     rms          rms(c)
DAV:   1    -0.571897497709E+03   -0.54102E-04   -0.57251E-03 12664   0.571E-02    0.206E-02
RMM:   2    -0.571897576892E+03   -0.79183E-04   -0.80600E-05 11928   0.976E-03    0.929E-02
RMM:   3    -0.571897495169E+03    0.81722E-04   -0.23915E-05  8780   0.415E-03    0.122E-02
RMM:   4    -0.571897502352E+03   -0.71823E-05   -0.59830E-06  7347   0.224E-03
  47 F= -.57189750E+03 E0= -.57186860E+03  d E =-.640436E-03  mag=    71.6563
       N       E                     dE             d eps       ncg     rms          rms(c)
DAV:   1    -0.571897508558E+03   -0.13388E-04   -0.22233E-02 12568   0.107E-01    0.147E-02
RMM:   2    -0.571897533831E+03   -0.25273E-04   -0.23242E-04 11974   0.152E-02    0.212E-02
RMM:   3    -0.571897534399E+03   -0.56811E-06   -0.13874E-05  7305   0.347E-03
  48 F= -.57189753E+03 E0= -.57186863E+03  d E =-.672484E-03  mag=    71.6563
       N       E                     dE             d eps       ncg     rms          rms(c)
DAV:   1    -0.571897525132E+03    0.86998E-05   -0.55739E-03 12568   0.549E-02    0.132E-02
RMM:   2    -0.571897571656E+03   -0.46524E-04   -0.84645E-05 12124   0.929E-03    0.669E-02
RMM:   3    -0.571897528718E+03    0.42938E-04   -0.15507E-05  8360   0.347E-03    0.837E-03
RMM:   4    -0.571897531167E+03   -0.24489E-05   -0.28066E-06  7127   0.164E-03
  49 F= -.57189753E+03 E0= -.57186863E+03  d E =-.669251E-03  mag=    71.6563
       N       E                     dE             d eps       ncg     rms          rms(c)
DAV:   1    -0.571897835358E+03   -0.30664E-03   -0.23992E-02 12536   0.111E-01    0.146E-02
RMM:   2    -0.571897859590E+03   -0.24232E-04   -0.24881E-04 11796   0.154E-02    0.108E-02
RMM:   3    -0.571897862852E+03   -0.32625E-05   -0.11585E-05  7230   0.321E-03
  50 F= -.57189786E+03 E0= -.57186898E+03  d E =-.331686E-03  mag=    71.6564
       N       E                     dE             d eps       ncg     rms          rms(c)
DAV:   1    -0.571897892929E+03   -0.33339E-04   -0.48440E-04 12736   0.178E-02    0.874E-03
RMM:   2    -0.571897903280E+03   -0.10351E-04   -0.80965E-06  7254   0.325E-03    0.348E-02
RMM:   3    -0.571897892301E+03    0.10980E-04   -0.37240E-06  6997   0.189E-03    0.552E-03
RMM:   4    -0.571897893824E+03   -0.15236E-05   -0.12027E-06  4879   0.105E-03
  51 F= -.57189789E+03 E0= -.57186899E+03  d E =-.362658E-03  mag=    71.6564
       N       E                     dE             d eps       ncg     rms          rms(c)
DAV:   1    -0.571897950595E+03   -0.58295E-04   -0.18267E-03 12664   0.314E-02    0.467E-03
RMM:   2    -0.571897952458E+03   -0.18629E-05   -0.17442E-05  6759   0.439E-03
  52 F= -.57189795E+03 E0= -.57186906E+03  d E =-.421292E-03  mag=    71.6564
       N       E                     dE             d eps       ncg     rms          rms(c)
DAV:   1    -0.571898033022E+03   -0.82426E-04   -0.73125E-03 12600   0.614E-02    0.110E-02
RMM:   2    -0.571898049365E+03   -0.16344E-04   -0.77884E-05 11577   0.915E-03    0.345E-02
RMM:   3    -0.571898039900E+03    0.94654E-05   -0.71614E-06  7093   0.256E-03
  53 F= -.57189804E+03 E0= -.57186915E+03  d E =-.508733E-03  mag=    71.6564
       N       E                     dE             d eps       ncg     rms          rms(c)
DAV:   1    -0.571898037259E+03    0.12106E-04   -0.66430E-03 12576   0.569E-02    0.187E-02
RMM:   2    -0.571898092210E+03   -0.54951E-04   -0.11683E-04 12076   0.952E-03    0.745E-02
RMM:   3    -0.571898042921E+03    0.49289E-04   -0.20963E-05  8615   0.381E-03    0.129E-02
RMM:   4    -0.571898048117E+03   -0.51967E-05   -0.50724E-06  7210   0.200E-03
  54 F= -.57189805E+03 E0= -.57186915E+03  d E =-.821750E-05  mag=    71.6565
       N       E                     dE             d eps       ncg     rms          rms(c)
DAV:   1    -0.571897710041E+03    0.33288E-03   -0.59976E-02 12552   0.169E-01    0.374E-02
RMM:   2    -0.571897786961E+03   -0.76920E-04   -0.81560E-04 12163   0.228E-02    0.258E-02
RMM:   3    -0.571897826929E+03   -0.39968E-04   -0.59664E-05  9524   0.597E-03    0.573E-02
RMM:   4    -0.571897787512E+03    0.39417E-04   -0.22493E-05  8547   0.406E-03    0.209E-02
RMM:   5    -0.571897795083E+03   -0.75712E-05   -0.84780E-06  7529   0.255E-03
  55 F= -.57189780E+03 E0= -.57186895E+03  d E =0.244817E-03  mag=    71.6566
