       N       E                     dE             d eps       ncg     rms          rms(c)
DAV:   1     0.282903955588E+05    0.28290E+05   -0.47286E+05 12416   0.161E+03
DAV:   2     0.527631515646E+04   -0.23014E+05   -0.20849E+05 11648   0.888E+02
DAV:   3     0.165733433039E+04   -0.36190E+04   -0.32317E+04 17568   0.655E+02
DAV:   4     0.108778817519E+04   -0.56955E+03   -0.51775E+03 17856   0.306E+02
DAV:   5     0.100442368517E+04   -0.83364E+02   -0.77944E+02 17856   0.866E+01    0.164E+03
RMM:   6    -0.303170903940E+04   -0.40361E+04   -0.45546E+03 12873   0.113E+02    0.242E+03
RMM:   7    -0.263637648101E+05   -0.23332E+05   -0.61833E+04 14792   0.280E+02    0.196E+04
RMM:   8    -0.189574610751E+05    0.74063E+04   -0.69690E+04  8986   0.165E+03    0.137E+04
RMM:   9    -0.213214327875E+05   -0.23640E+04   -0.24843E+03 10722   0.195E+03    0.219E+04
RMM:  10    -0.224539309586E+05   -0.11325E+04   -0.61732E+04  8983   0.203E+03    0.248E+04
RMM:  11    -0.226641500834E+05   -0.21022E+03   -0.20358E+04  8955   0.222E+03    0.294E+04
RMM:  12    -0.297296743192E+05   -0.70655E+04   -0.19419E+03  9573   0.273E+03    0.381E+04
RMM:  13    -0.394497138486E+05   -0.97200E+04   -0.51128E+04  9118   0.316E+03    0.401E+04
RMM:  14    -0.390178392415E+05    0.43187E+03   -0.51416E+04  8944   0.305E+03    0.386E+04
RMM:  15    -0.214660435784E+05    0.17552E+05   -0.44078E+04  8933   0.200E+03    0.203E+04
RMM:  16    -0.204651104650E+05    0.10009E+04   -0.36078E+02  8928   0.187E+03    0.224E+04
RMM:  17    -0.134028876173E+05    0.70622E+04   -0.99227E+03  8931   0.128E+03    0.999E+03
RMM:  18    -0.613015071623E+04    0.72727E+04   -0.87944E+03  8928   0.116E+03    0.968E+03
RMM:  19    -0.644131192571E+04   -0.31116E+03   -0.42173E+03  8931   0.104E+03    0.838E+03
RMM:  20    -0.725564764968E+04   -0.81434E+03   -0.24509E+03  8971   0.946E+02    0.752E+03
RMM:  21    -0.781139427030E+04   -0.55575E+03   -0.19836E+03  8952   0.899E+02    0.697E+03
RMM:  22    -0.925173931289E+04   -0.14403E+04   -0.25024E+03  8933   0.873E+02    0.619E+03
RMM:  23    -0.989750046352E+04   -0.64576E+03   -0.17227E+03  8941   0.834E+02    0.598E+03
RMM:  24    -0.107144312287E+05   -0.81693E+03   -0.62622E+02  9079   0.832E+02    0.624E+03
RMM:  25    -0.116321593732E+05   -0.91773E+03    0.71123E+02  8994   0.886E+02    0.694E+03
RMM:  26    -0.102853707376E+05    0.13468E+04   -0.55577E+02  9012   0.931E+02    0.752E+03
RMM:  27    -0.983571016192E+04    0.44966E+03   -0.18419E+02  9033   0.983E+02    0.819E+03
RMM:  28    -0.104861666280E+05   -0.65046E+03    0.10324E+03  9096   0.106E+03    0.938E+03
RMM:  29    -0.103642685432E+05    0.12190E+03   -0.11868E+03  9079   0.116E+03    0.100E+04
RMM:  30    -0.946842801774E+04    0.89584E+03   -0.13721E+03  9023   0.121E+03    0.103E+04
RMM:  31    -0.580925930655E+04    0.36592E+04   -0.50369E+03  8959   0.115E+03    0.952E+03
RMM:  32    -0.554065049576E+04    0.26861E+03   -0.30776E+03  9031   0.106E+03    0.894E+03
RMM:  33    -0.490097785856E+04    0.63967E+03   -0.64854E+03  9094   0.101E+03    0.766E+03
RMM:  34    -0.455324224502E+04    0.34774E+03   -0.31830E+03  9192   0.879E+02    0.688E+03
RMM:  35    -0.506307721650E+04   -0.50983E+03   -0.18387E+03  9690   0.811E+02    0.676E+03
RMM:  36    -0.508398495917E+04   -0.20908E+02   -0.23252E+03  9813   0.792E+02    0.661E+03
RMM:  37    -0.385563877759E+04    0.12283E+04   -0.35081E+03  9900   0.767E+02    0.615E+03
RMM:  38    -0.408388788821E+04   -0.22825E+03   -0.21585E+03  9834   0.710E+02    0.573E+03
RMM:  39    -0.422201037749E+04   -0.13812E+03   -0.17498E+03  9959   0.663E+02    0.558E+03
RMM:  40    -0.896716120364E+04   -0.47452E+04   -0.19527E+04 11179   0.747E+02    0.630E+03
RMM:  41    -0.480565803478E+04    0.41615E+04   -0.29574E+03  9780   0.710E+02    0.594E+03
RMM:  42    -0.322527389106E+04    0.15804E+04   -0.29576E+03 10761   0.661E+02    0.538E+03
RMM:  43    -0.367700065173E+04   -0.45173E+03   -0.16310E+03 10749   0.626E+02    0.519E+03
