       N       E                     dE             d eps       ncg     rms          rms(c)
DAV:   1     0.959153949494E+04    0.95915E+04   -0.67400E+05 21240   0.113E+03
DAV:   2    -0.896771677355E+02   -0.96812E+04   -0.91571E+04 21538   0.296E+02
DAV:   3    -0.550709322224E+03   -0.46103E+03   -0.43325E+03 21496   0.574E+01
DAV:   4    -0.561973697914E+03   -0.11264E+02   -0.11167E+02 22032   0.830E+00
DAV:   5    -0.562488783058E+03   -0.51509E+00   -0.51452E+00 26880   0.160E+00    0.899E+01
RMM:   6    -0.532915738438E+03    0.29573E+02   -0.22302E+02 19402   0.135E+01    0.847E+01
RMM:   7    -0.586037053524E+03   -0.53121E+02   -0.14482E+02 19408   0.104E+01    0.912E+01
RMM:   8    -0.556976834801E+03    0.29060E+02   -0.15242E+02 19400   0.111E+01    0.813E+01
RMM:   9    -0.555297293300E+03    0.16795E+01   -0.87685E+01 19400   0.856E+00    0.847E+01
RMM:  10    -0.512371116517E+03    0.42926E+02   -0.54169E+01 19404   0.625E+00    0.574E+01
RMM:  11    -0.519319016698E+03   -0.69479E+01   -0.35837E+01 19393   0.505E+00    0.656E+01
RMM:  12    -0.513057049636E+03    0.62620E+01   -0.28142E+01 19406   0.437E+00    0.651E+01
RMM:  13    -0.480042794340E+03    0.33014E+02   -0.13403E+01 19391   0.299E+00    0.288E+01
RMM:  14    -0.483747999361E+03   -0.37052E+01   -0.36033E+00 19395   0.161E+00    0.252E+01
RMM:  15    -0.488095157583E+03   -0.43472E+01   -0.23677E+00 19403   0.133E+00    0.203E+01
RMM:  16    -0.499628876601E+03   -0.11534E+02   -0.62227E+00 19381   0.199E+00    0.167E+01
RMM:  17    -0.505474500293E+03   -0.58456E+01   -0.35564E+00 19410   0.152E+00    0.214E+01
RMM:  18    -0.508246975064E+03   -0.27725E+01   -0.24449E+00 19405   0.130E+00    0.126E+01
RMM:  19    -0.512842004077E+03   -0.45950E+01   -0.19780E+00 19394   0.112E+00    0.172E+01
RMM:  20    -0.514063655342E+03   -0.12217E+01   -0.10665E+00 19403   0.831E-01    0.111E+01
RMM:  21    -0.515106121017E+03   -0.10425E+01   -0.31315E-01 19388   0.435E-01    0.990E+00
RMM:  22    -0.515583764179E+03   -0.47764E+00   -0.14953E-01 19391   0.305E-01    0.898E+00
RMM:  23    -0.516790393060E+03   -0.12066E+01   -0.34638E-01 19389   0.452E-01    0.775E+00
RMM:  24    -0.517741037132E+03   -0.95064E+00   -0.26913E-01 19399   0.406E-01    0.632E+00
RMM:  25    -0.519113170765E+03   -0.13721E+01   -0.20710E-01 19383   0.339E-01    0.665E+00
RMM:  26    -0.519685609317E+03   -0.57244E+00   -0.93906E-02 19387   0.238E-01    0.564E+00
RMM:  27    -0.521307149206E+03   -0.16215E+01   -0.22141E-01 19361   0.312E-01    0.555E+00
RMM:  28    -0.522126229482E+03   -0.81908E+00   -0.14843E-01 19385   0.270E-01    0.515E+00
RMM:  29    -0.523305277930E+03   -0.11790E+01   -0.33199E-01 19371   0.364E-01    0.364E+00
RMM:  30    -0.523540807460E+03   -0.23553E+00   -0.72614E-02 19396   0.187E-01    0.375E+00
RMM:  31    -0.523723994036E+03   -0.18319E+00   -0.45179E-02 19384   0.160E-01    0.307E+00
RMM:  32    -0.524111996915E+03   -0.38800E+00   -0.69263E-02 19379   0.180E-01    0.308E+00
RMM:  33    -0.524390007994E+03   -0.27801E+00   -0.54923E-02 19384   0.167E-01    0.244E+00
RMM:  34    -0.524926221917E+03   -0.53621E+00   -0.10367E-01 19381   0.192E-01    0.176E+00
RMM:  35    -0.525342813514E+03   -0.41659E+00   -0.79921E-02 19384   0.178E-01    0.205E+00
RMM:  36    -0.525495760862E+03   -0.15295E+00   -0.28378E-02 19397   0.116E-01    0.120E+00
RMM:  37    -0.525803540992E+03   -0.30778E+00   -0.21887E-02 19386   0.946E-02    0.140E+00
RMM:  38    -0.525944525005E+03   -0.14098E+00   -0.85179E-03 19403   0.650E-02    0.799E-01
RMM:  39    -0.526375369002E+03   -0.43084E+00   -0.15001E-02 19382   0.782E-02    0.533E-01
RMM:  40    -0.526487685588E+03   -0.11232E+00   -0.31907E-03 19380   0.388E-02    0.443E-01
RMM:  41    -0.526764372482E+03   -0.27669E+00   -0.38028E-03 19362   0.367E-02    0.233E-01
RMM:  42    -0.526929534077E+03   -0.16516E+00   -0.21643E-03 19340   0.280E-02    0.390E-01
RMM:  43    -0.527063878760E+03   -0.13434E+00   -0.16139E-03 19329   0.248E-02    0.177E-01
RMM:  44    -0.527272544012E+03   -0.20867E+00   -0.31820E-03 19237   0.284E-02    0.142E-01
RMM:  45    -0.527323233909E+03   -0.50690E-01   -0.93584E-04 19030   0.169E-02    0.228E-01
RMM:  46    -0.527374626015E+03   -0.51392E-01   -0.91010E-04 19002   0.164E-02    0.107E-01
RMM:  47    -0.527421564264E+03   -0.46938E-01   -0.99612E-04 18438   0.150E-02    0.157E-01
RMM:  48    -0.527432970567E+03   -0.11406E-01   -0.22102E-04 15387   0.826E-03    0.931E-02
RMM:  49    -0.527454831405E+03   -0.21861E-01   -0.30488E-04 15231   0.827E-03    0.612E-02
RMM:  50    -0.527459376997E+03   -0.45456E-02   -0.75545E-05 13762   0.507E-03    0.704E-02
RMM:  51    -0.527466759790E+03   -0.73828E-02   -0.10879E-04 13923   0.559E-03    0.279E-02
RMM:  52    -0.527470115094E+03   -0.33553E-02   -0.67576E-05 13301   0.402E-03    0.415E-02
RMM:  53    -0.527470928949E+03   -0.81386E-03   -0.21546E-05 12335   0.275E-03    0.141E-02
RMM:  54    -0.527471834567E+03   -0.90562E-03   -0.29057E-05 12376   0.230E-03    0.961E-03
RMM:  55    -0.527472033742E+03   -0.19917E-03   -0.75722E-06  9830   0.150E-03    0.177E-02
RMM:  56    -0.527472164337E+03   -0.13059E-03   -0.45179E-06  8936   0.129E-03    0.629E-03
RMM:  57    -0.527472246898E+03   -0.82561E-04   -0.27946E-06  8014   0.964E-04    0.434E-03
RMM:  58    -0.527472282326E+03   -0.35429E-04   -0.14527E-06  7010   0.816E-04    0.741E-03
RMM:  59    -0.527472317883E+03   -0.35556E-04   -0.15950E-06  7073   0.811E-04    0.315E-03
RMM:  60    -0.527472346105E+03   -0.28222E-04   -0.14998E-06  6589   0.762E-04
   1 F= -.52747235E+03 E0= -.52749844E+03  d E =-.527472E+03  mag=    66.1507
       N       E                     dE             d eps       ncg     rms          rms(c)
DAV:   1    -0.527591325713E+03   -0.11901E+00   -0.12137E+01 20012   0.493E+00    0.713E-01
RMM:   2    -0.527674832771E+03   -0.83507E-01   -0.69444E-01 19430   0.914E-01    0.171E+00
RMM:   3    -0.527662100891E+03    0.12732E-01   -0.23372E-02 19467   0.132E-01    0.143E+00
RMM:   4    -0.527659455849E+03    0.26450E-02   -0.72626E-03 19415   0.727E-02    0.125E+00
RMM:   5    -0.527650696109E+03    0.87597E-02   -0.34697E-03 19389   0.498E-02    0.349E-01
RMM:   6    -0.527650774988E+03   -0.78879E-04   -0.81346E-04 19295   0.250E-02    0.372E-01
RMM:   7    -0.527649718828E+03    0.10562E-02   -0.60710E-04 19407   0.212E-02    0.177E-01
RMM:   8    -0.527649073125E+03    0.64570E-03   -0.60556E-04 19152   0.214E-02    0.205E-01
RMM:   9    -0.527648809855E+03    0.26327E-03   -0.30145E-04 19205   0.145E-02    0.135E-01
RMM:  10    -0.527648714626E+03    0.95229E-04   -0.99694E-05 16551   0.843E-03    0.783E-02
RMM:  11    -0.527648734716E+03   -0.20089E-04   -0.24534E-05 13046   0.413E-03    0.507E-02
RMM:  12    -0.527648882817E+03   -0.14810E-03   -0.12950E-05 12234   0.319E-03    0.310E-02
RMM:  13    -0.527648950788E+03   -0.67971E-04   -0.67414E-06 11287   0.232E-03    0.261E-02
RMM:  14    -0.527649186235E+03   -0.23545E-03   -0.63599E-06 11594   0.209E-03    0.263E-02
RMM:  15    -0.527649261889E+03   -0.75654E-04   -0.24443E-06 10980   0.140E-03    0.989E-03
RMM:  16    -0.527649560724E+03   -0.29883E-03   -0.28516E-06  9120   0.119E-03    0.103E-02
RMM:  17    -0.527649650425E+03   -0.89701E-04   -0.83202E-07  6377   0.847E-04    0.624E-03
RMM:  18    -0.527650058753E+03   -0.40833E-03   -0.32324E-06  8813   0.107E-03    0.763E-03
RMM:  19    -0.527650226446E+03   -0.16769E-03   -0.10927E-06  5884   0.765E-04    0.632E-03
RMM:  20    -0.527650628247E+03   -0.40180E-03   -0.26453E-06  7061   0.895E-04    0.346E-03
RMM:  21    -0.527651077283E+03   -0.44904E-03   -0.35589E-06  7718   0.935E-04    0.572E-03
RMM:  22    -0.527651307962E+03   -0.23068E-03   -0.16572E-06  6377   0.768E-04    0.323E-03
RMM:  23    -0.527651750375E+03   -0.44241E-03   -0.52598E-06  7954   0.101E-03    0.233E-03
RMM:  24    -0.527651819452E+03   -0.69077E-04   -0.68745E-07  5020   0.654E-04    0.224E-03
RMM:  25    -0.527651947314E+03   -0.12786E-03   -0.11907E-06  5940   0.697E-04    0.909E-04
RMM:  26    -0.527651989987E+03   -0.42673E-04   -0.41045E-07  4477   0.593E-04    0.180E-03
RMM:  27    -0.527652018525E+03   -0.28538E-04   -0.29682E-07  4268   0.592E-04    0.526E-04
RMM:  28    -0.527652032559E+03   -0.14034E-04   -0.24227E-07  4117   0.594E-04    0.630E-04
RMM:  29    -0.527652034274E+03   -0.17151E-05   -0.53298E-08  2994   0.548E-04
   2 F= -.52765203E+03 E0= -.52767836E+03  d E =-.179688E+00  mag=    66.1314
       N       E                     dE             d eps       ncg     rms          rms(c)
DAV:   1    -0.527559868096E+03    0.92164E-01   -0.10923E+02 19672   0.148E+01    0.218E+00
RMM:   2    -0.528390557400E+03   -0.83069E+00   -0.65056E+00 19431   0.278E+00    0.602E+00
RMM:   3    -0.528195357123E+03    0.19520E+00   -0.22283E-01 19460   0.409E-01    0.385E+00
RMM:   4    -0.528202436583E+03   -0.70795E-02   -0.69952E-02 19410   0.222E-01    0.398E+00
RMM:   5    -0.528115768371E+03    0.86668E-01   -0.34947E-02 19388   0.156E-01    0.121E+00
RMM:   6    -0.528116386000E+03   -0.61763E-03   -0.88726E-03 19398   0.811E-02    0.120E+00
RMM:   7    -0.528107953422E+03    0.84326E-02   -0.60102E-03 19405   0.662E-02    0.536E-01
RMM:   8    -0.528106495619E+03    0.14578E-02   -0.53497E-03 19400   0.636E-02    0.611E-01
RMM:   9    -0.528105239474E+03    0.12561E-02   -0.29644E-03 19348   0.452E-02    0.463E-01
RMM:  10    -0.528104647563E+03    0.59191E-03   -0.11389E-03 19292   0.281E-02    0.337E-01
RMM:  11    -0.528104393040E+03    0.25452E-03   -0.38778E-04 19162   0.159E-02    0.166E-01
RMM:  12    -0.528105176805E+03   -0.78377E-03   -0.13546E-04 18581   0.999E-03    0.103E-01
RMM:  13    -0.528105506606E+03   -0.32980E-03   -0.70392E-05 14344   0.669E-03    0.884E-02
RMM:  14    -0.528106592402E+03   -0.10858E-02   -0.52176E-05 13736   0.604E-03    0.975E-02
RMM:  15    -0.528106975643E+03   -0.38324E-03   -0.27487E-05 13060   0.459E-03    0.283E-02
RMM:  16    -0.528108258761E+03   -0.12831E-02   -0.19296E-05 12216   0.344E-03    0.325E-02
RMM:  17    -0.528108672340E+03   -0.41358E-03   -0.71094E-06 11451   0.236E-03    0.205E-02
RMM:  18    -0.528110397661E+03   -0.17253E-02   -0.17855E-05 12197   0.258E-03    0.240E-02
RMM:  19    -0.528111062966E+03   -0.66530E-03   -0.64130E-06 11603   0.177E-03    0.184E-02
RMM:  20    -0.528112469534E+03   -0.14066E-02   -0.89876E-06 10498   0.159E-03    0.106E-02
RMM:  21    -0.528114536702E+03   -0.20672E-02   -0.16744E-05 10850   0.178E-03    0.138E-02
RMM:  22    -0.528115303275E+03   -0.76657E-03   -0.54305E-06  8546   0.126E-03    0.116E-02
RMM:  23    -0.528117654804E+03   -0.23515E-02   -0.31756E-05 12019   0.222E-03    0.650E-03
RMM:  24    -0.528118196759E+03   -0.54196E-03   -0.62154E-06  8223   0.118E-03    0.977E-03
RMM:  25    -0.528118877402E+03   -0.68064E-03   -0.68267E-06  8499   0.115E-03    0.272E-03
RMM:  26    -0.528119238514E+03   -0.36111E-03   -0.29662E-06  7182   0.894E-04    0.503E-03
RMM:  27    -0.528119373733E+03   -0.13522E-03   -0.10647E-06  5561   0.717E-04    0.194E-03
RMM:  28    -0.528119479600E+03   -0.10587E-03   -0.75766E-07  5069   0.687E-04    0.232E-03
RMM:  29    -0.528119506979E+03   -0.27379E-04   -0.28467E-07  4216   0.619E-04    0.100E-03
RMM:  30    -0.528119538630E+03   -0.31650E-04   -0.40553E-07  4827   0.659E-04    0.627E-04
RMM:  31    -0.528119543266E+03   -0.46367E-05   -0.88756E-08  3439   0.600E-04
   3 F= -.52811954E+03 E0= -.52814627E+03  d E =-.647197E+00  mag=    66.0755
       N       E                     dE             d eps       ncg     rms          rms(c)
DAV:   1    -0.526327872678E+03    0.17917E+01   -0.43688E+02 19456   0.295E+01    0.451E+00
RMM:   2    -0.530258972557E+03   -0.39311E+01   -0.29087E+01 19433   0.577E+00    0.145E+01
RMM:   3    -0.529037984518E+03    0.12210E+01   -0.10071E+00 19451   0.871E-01    0.705E+00
RMM:   4    -0.529127418869E+03   -0.89434E-01   -0.30315E-01 19407   0.457E-01    0.810E+00
RMM:   5    -0.528780879705E+03    0.34654E+00   -0.14838E-01 19391   0.321E-01    0.272E+00
RMM:   6    -0.528781891885E+03   -0.10122E-02   -0.44533E-02 19397   0.179E-01    0.259E+00
RMM:   7    -0.528746877492E+03    0.35014E-01   -0.27965E-02 19407   0.143E-01    0.112E+00
RMM:   8    -0.528747826214E+03   -0.94872E-03   -0.20590E-02 19399   0.125E-01    0.126E+00
RMM:   9    -0.528745095310E+03    0.27309E-02   -0.12707E-02 19396   0.924E-02    0.104E+00
RMM:  10    -0.528743689105E+03    0.14062E-02   -0.58554E-03 19391   0.641E-02    0.858E-01
RMM:  11    -0.528741375026E+03    0.23141E-02   -0.26612E-03 19399   0.414E-02    0.445E-01
RMM:  12    -0.528743028228E+03   -0.16532E-02   -0.94958E-04 19385   0.265E-02    0.312E-01
RMM:  13    -0.528743482320E+03   -0.45409E-03   -0.44922E-04 19132   0.168E-02    0.155E-01
RMM:  14    -0.528746466953E+03   -0.29846E-02   -0.24949E-04 19202   0.130E-02    0.249E-01
RMM:  15    -0.528747283645E+03   -0.81669E-03   -0.14523E-04 18808   0.996E-03    0.652E-02
RMM:  16    -0.528749942612E+03   -0.26590E-02   -0.69059E-05 14353   0.665E-03    0.980E-02
RMM:  17    -0.528751199186E+03   -0.12566E-02   -0.36873E-05 13373   0.517E-03    0.380E-02
RMM:  18    -0.528755109059E+03   -0.39099E-02   -0.52064E-05 13499   0.489E-03    0.496E-02
RMM:  19    -0.528756921000E+03   -0.18119E-02   -0.25113E-05 12918   0.376E-03    0.350E-02
RMM:  20    -0.528760711987E+03   -0.37910E-02   -0.34610E-05 12636   0.334E-03    0.209E-02
RMM:  21    -0.528764122306E+03   -0.34103E-02   -0.26896E-05 12355   0.266E-03    0.324E-02
RMM:  22    -0.528765961369E+03   -0.18391E-02   -0.12746E-05 12032   0.217E-03    0.199E-02
RMM:  23    -0.528772991428E+03   -0.70301E-02   -0.10268E-04 13283   0.406E-03    0.121E-02
RMM:  24    -0.528774874194E+03   -0.18828E-02   -0.26162E-05 12302   0.231E-03    0.219E-02
RMM:  25    -0.528776942759E+03   -0.20686E-02   -0.27168E-05 12333   0.223E-03    0.536E-03
RMM:  26    -0.528777879899E+03   -0.93714E-03   -0.98790E-06  8463   0.125E-03    0.783E-03
RMM:  27    -0.528778077165E+03   -0.19727E-03   -0.17235E-06  6482   0.837E-04    0.414E-03
RMM:  28    -0.528778429273E+03   -0.35211E-03   -0.23031E-06  6821   0.845E-04    0.302E-03
RMM:  29    -0.528778507324E+03   -0.78052E-04   -0.57735E-07  4944   0.676E-04    0.272E-03
RMM:  30    -0.528778615178E+03   -0.10785E-03   -0.82321E-07  5629   0.721E-04    0.134E-03
RMM:  31    -0.528778635020E+03   -0.19842E-04   -0.29406E-07  4392   0.625E-04    0.173E-03
RMM:  32    -0.528778653287E+03   -0.18268E-04   -0.32183E-07  4838   0.646E-04    0.557E-04
RMM:  33    -0.528778657611E+03   -0.43240E-05   -0.16169E-07  4044   0.603E-04
   4 F= -.52877866E+03 E0= -.52880464E+03  d E =-.130631E+01  mag=    65.9505
       N       E                     dE             d eps       ncg     rms          rms(c)
DAV:   1    -0.516910005678E+03    0.11869E+02   -0.17541E+03 19392   0.588E+01    0.964E+00
RMM:   2    -0.539170735594E+03   -0.22261E+02   -0.15132E+02 19434   0.123E+01    0.353E+01
RMM:   3    -0.530013838896E+03    0.91569E+01   -0.51918E+00 19419   0.201E+00    0.140E+01
RMM:   4    -0.529969643188E+03    0.44196E-01   -0.14004E+00 19398   0.989E-01    0.143E+01
RMM:   5    -0.529120662776E+03    0.84898E+00   -0.56642E-01 19401   0.633E-01    0.761E+00
RMM:   6    -0.528954257643E+03    0.16641E+00   -0.24911E-01 19399   0.417E-01    0.521E+00
RMM:   7    -0.528822620452E+03    0.13164E+00   -0.12842E-01 19410   0.304E-01    0.226E+00
RMM:   8    -0.528867022583E+03   -0.44402E-01   -0.80126E-02 19394   0.240E-01    0.337E+00
RMM:   9    -0.528837835202E+03    0.29187E-01   -0.59249E-02 19391   0.199E-01    0.218E+00
RMM:  10    -0.528858520050E+03   -0.20685E-01   -0.34278E-02 19401   0.151E-01    0.259E+00
RMM:  11    -0.528830360642E+03    0.28159E-01   -0.19311E-02 19392   0.112E-01    0.978E-01
RMM:  12    -0.528841614516E+03   -0.11254E-01   -0.86223E-03 19397   0.757E-02    0.114E+00
RMM:  13    -0.528840509994E+03    0.11045E-02   -0.45530E-03 19398   0.548E-02    0.362E-01
RMM:  14    -0.528850585403E+03   -0.10075E-01   -0.17245E-03 19401   0.345E-02    0.578E-01
RMM:  15    -0.528853005271E+03   -0.24199E-02   -0.10672E-03 19305   0.268E-02    0.285E-01
RMM:  16    -0.528859325732E+03   -0.63205E-02   -0.65912E-04 19276   0.208E-02    0.365E-01
RMM:  17    -0.528862057646E+03   -0.27319E-02   -0.36330E-04 19105   0.154E-02    0.951E-02
RMM:  18    -0.528871724050E+03   -0.96664E-02   -0.22467E-04 18301   0.108E-02    0.688E-02
RMM:  19    -0.528878351421E+03   -0.66274E-02   -0.16914E-04 17548   0.950E-03    0.130E-01
RMM:  20    -0.528885697799E+03   -0.73464E-02   -0.13544E-04 15548   0.838E-03    0.490E-02
RMM:  21    -0.528890588238E+03   -0.48904E-02   -0.52995E-05 13621   0.477E-03    0.697E-02
RMM:  22    -0.528894678990E+03   -0.40908E-02   -0.33735E-05 13260   0.403E-03    0.344E-02
RMM:  23    -0.528904853659E+03   -0.10175E-01   -0.10068E-04 14030   0.543E-03    0.514E-02
RMM:  24    -0.528910325125E+03   -0.54715E-02   -0.54402E-05 13559   0.428E-03    0.289E-02
RMM:  25    -0.528920633825E+03   -0.10309E-01   -0.14015E-04 14016   0.535E-03    0.370E-02
RMM:  26    -0.528923285244E+03   -0.26514E-02   -0.32881E-05 12640   0.301E-03    0.187E-02
RMM:  27    -0.528927827490E+03   -0.45422E-02   -0.50969E-05 12784   0.293E-03    0.118E-02
RMM:  28    -0.528928803932E+03   -0.97644E-03   -0.10728E-05 10781   0.171E-03    0.171E-02
RMM:  29    -0.528930287703E+03   -0.14838E-02   -0.17263E-05 10773   0.179E-03    0.464E-03
RMM:  30    -0.528930609706E+03   -0.32200E-03   -0.38132E-06  8035   0.106E-03    0.973E-03
RMM:  31    -0.528930831782E+03   -0.22208E-03   -0.22174E-06  6973   0.894E-04    0.209E-03
RMM:  32    -0.528930938749E+03   -0.10697E-03   -0.11477E-06  5982   0.741E-04    0.253E-03
RMM:  33    -0.528930958030E+03   -0.19280E-04   -0.32084E-07  4325   0.616E-04    0.173E-03
RMM:  34    -0.528930982461E+03   -0.24432E-04   -0.46592E-07  5365   0.667E-04    0.102E-03
RMM:  35    -0.528930986839E+03   -0.43772E-05   -0.13229E-07  3865   0.581E-04
   5 F= -.52893099E+03 E0= -.52894952E+03  d E =-.145864E+01  mag=    65.6279
       N       E                     dE             d eps       ncg     rms          rms(c)
DAV:   1    -0.527474386871E+03    0.14566E+01   -0.30062E+02 19676   0.249E+01    0.342E+00
RMM:   2    -0.529313617237E+03   -0.18392E+01   -0.17745E+01 19426   0.464E+00    0.337E+00
RMM:   3    -0.529639642993E+03   -0.32603E+00   -0.52436E-01 19475   0.632E-01    0.994E+00
RMM:   4    -0.529111040195E+03    0.52860E+00   -0.16455E-01 19426   0.335E-01    0.316E+00
RMM:   5    -0.529068763879E+03    0.42276E-01   -0.41227E-02 19420   0.172E-01    0.171E+00
RMM:   6    -0.529061481430E+03    0.72824E-02   -0.14659E-02 19423   0.108E-01    0.144E+00
RMM:   7    -0.529057933917E+03    0.35475E-02   -0.17334E-02 19398   0.109E-01    0.133E+00
RMM:   8    -0.529049359214E+03    0.85747E-02   -0.11331E-02 19408   0.956E-02    0.928E-01
RMM:   9    -0.529045828791E+03    0.35304E-02   -0.38326E-03 19377   0.512E-02    0.411E-01
RMM:  10    -0.529047511801E+03   -0.16830E-02   -0.14764E-03 19397   0.317E-02    0.582E-01
RMM:  11    -0.529046128734E+03    0.13831E-02   -0.85120E-04 19225   0.238E-02    0.142E-01
RMM:  12    -0.529047214082E+03   -0.10853E-02   -0.30741E-04 19008   0.142E-02    0.216E-01
RMM:  13    -0.529047860988E+03   -0.64691E-03   -0.19156E-04 18853   0.113E-02    0.861E-02
RMM:  14    -0.529049104161E+03   -0.12432E-02   -0.10838E-04 18300   0.856E-03    0.146E-01
RMM:  15    -0.529049860063E+03   -0.75590E-03   -0.62680E-05 14166   0.659E-03    0.447E-02
RMM:  16    -0.529051376486E+03   -0.15164E-02   -0.30816E-05 13055   0.454E-03    0.634E-02
RMM:  17    -0.529052124117E+03   -0.74763E-03   -0.15242E-05 12362   0.329E-03    0.285E-02
RMM:  18    -0.529054709272E+03   -0.25852E-02   -0.20202E-05 12309   0.285E-03    0.263E-02
RMM:  19    -0.529055883803E+03   -0.11745E-02   -0.97950E-06 11833   0.219E-03    0.256E-02
RMM:  20    -0.529058220930E+03   -0.23371E-02   -0.14324E-05 12058   0.221E-03    0.164E-02
RMM:  21    -0.529061914778E+03   -0.36938E-02   -0.32396E-05 12780   0.271E-03    0.208E-02
RMM:  22    -0.529063318553E+03   -0.14038E-02   -0.10823E-05 10597   0.177E-03    0.132E-02
RMM:  23    -0.529066649694E+03   -0.33311E-02   -0.36755E-05 12995   0.265E-03    0.138E-02
RMM:  24    -0.529067380095E+03   -0.73040E-03   -0.69829E-06  8241   0.136E-03    0.774E-03
RMM:  25    -0.529068812172E+03   -0.14321E-02   -0.13470E-05 10142   0.157E-03    0.714E-03
RMM:  26    -0.529069136118E+03   -0.32395E-03   -0.28104E-06  7104   0.971E-04    0.592E-03
RMM:  27    -0.529069741666E+03   -0.60555E-03   -0.61885E-06  8604   0.113E-03    0.262E-03
RMM:  28    -0.529069824516E+03   -0.82850E-04   -0.10476E-06  5677   0.714E-04    0.345E-03
RMM:  29    -0.529069949230E+03   -0.12471E-03   -0.10818E-06  5653   0.716E-04    0.107E-03
RMM:  30    -0.529069989190E+03   -0.39961E-04   -0.62547E-07  5063   0.669E-04    0.139E-03
RMM:  31    -0.529069994637E+03   -0.54470E-05   -0.15223E-07  3635   0.582E-04
   6 F= -.52906999E+03 E0= -.52909245E+03  d E =-.159765E+01  mag=    65.7723
       N       E                     dE             d eps       ncg     rms          rms(c)
DAV:   1    -0.528856937687E+03    0.21305E+00   -0.13671E+02 19584   0.160E+01    0.204E+00
RMM:   2    -0.529554100704E+03   -0.69716E+00   -0.59205E+00 19414   0.290E+00    0.460E+00
RMM:   3    -0.529453340693E+03    0.10076E+00   -0.21763E-01 19463   0.430E-01    0.389E+00
RMM:   4    -0.529438108580E+03    0.15232E-01   -0.56900E-02 19417   0.204E-01    0.355E+00
RMM:   5    -0.529364057866E+03    0.74051E-01   -0.26450E-02 19392   0.138E-01    0.967E-01
RMM:   6    -0.529364027773E+03    0.30093E-04   -0.67876E-03 19398   0.716E-02    0.950E-01
RMM:   7    -0.529358673531E+03    0.53542E-02   -0.56222E-03 19411   0.658E-02    0.511E-01
RMM:   8    -0.529358251827E+03    0.42170E-03   -0.70824E-03 19406   0.758E-02    0.624E-01
RMM:   9    -0.529357240722E+03    0.10111E-02   -0.27421E-03 19401   0.437E-02    0.489E-01
RMM:  10    -0.529356689074E+03    0.55165E-03   -0.10845E-03 19387   0.278E-02    0.371E-01
RMM:  11    -0.529356087081E+03    0.60199E-03   -0.43438E-04 19153   0.171E-02    0.114E-01
RMM:  12    -0.529356538396E+03   -0.45132E-03   -0.13326E-04 18970   0.997E-03    0.134E-01
RMM:  13    -0.529356628504E+03   -0.90108E-04   -0.81077E-05 15247   0.740E-03    0.692E-02
RMM:  14    -0.529357083977E+03   -0.45547E-03   -0.55512E-05 13937   0.636E-03    0.120E-01
RMM:  15    -0.529357243984E+03   -0.16001E-03   -0.35928E-05 13242   0.540E-03    0.217E-02
RMM:  16    -0.529357634683E+03   -0.39070E-03   -0.11631E-05 11850   0.319E-03    0.382E-02
RMM:  17    -0.529357828211E+03   -0.19353E-03   -0.58031E-06 11206   0.238E-03    0.111E-02
RMM:  18    -0.529358350560E+03   -0.52235E-03   -0.39767E-06 11476   0.149E-03    0.136E-02
RMM:  19    -0.529358582135E+03   -0.23158E-03   -0.16966E-06  7313   0.112E-03    0.106E-02
RMM:  20    -0.529359126997E+03   -0.54486E-03   -0.29429E-06  7743   0.109E-03    0.610E-03
RMM:  21    -0.529359756705E+03   -0.62971E-03   -0.40901E-06  9546   0.111E-03    0.972E-03
RMM:  22    -0.529360078967E+03   -0.32226E-03   -0.16069E-06  6850   0.819E-04    0.551E-03
RMM:  23    -0.529361159008E+03   -0.10800E-02   -0.10840E-05  9157   0.139E-03    0.551E-03
RMM:  24    -0.529361507695E+03   -0.34869E-03   -0.29706E-06  7315   0.945E-04    0.531E-03
RMM:  25    -0.529362085596E+03   -0.57790E-03   -0.67610E-06  9114   0.112E-03    0.291E-03
RMM:  26    -0.529362211767E+03   -0.12617E-03   -0.10106E-06  5790   0.693E-04    0.321E-03
RMM:  27    -0.529362440723E+03   -0.22896E-03   -0.18636E-06  6500   0.750E-04    0.144E-03
RMM:  28    -0.529362509812E+03   -0.69089E-04   -0.59050E-07  4860   0.610E-04    0.233E-03
RMM:  29    -0.529362561636E+03   -0.51824E-04   -0.42275E-07  4680   0.606E-04    0.759E-04
RMM:  30    -0.529362580083E+03   -0.18446E-04   -0.21137E-07  4109   0.584E-04    0.870E-04
RMM:  31    -0.529362584451E+03   -0.43683E-05   -0.88932E-08  3312   0.554E-04
   7 F= -.52936258E+03 E0= -.52938376E+03  d E =-.292590E+00  mag=    65.7408
       N       E                     dE             d eps       ncg     rms          rms(c)
DAV:   1    -0.527427517533E+03    0.19351E+01   -0.56163E+02 19348   0.324E+01    0.424E+00
RMM:   2    -0.530572944310E+03   -0.31454E+01   -0.25798E+01 19414   0.596E+00    0.109E+01
RMM:   3    -0.529930436238E+03    0.64251E+00   -0.96603E-01 19460   0.900E-01    0.728E+00
RMM:   4    -0.529967864506E+03   -0.37428E-01   -0.24740E-01 19422   0.422E-01    0.767E+00
RMM:   5    -0.529626255112E+03    0.34161E+00   -0.11706E-01 19386   0.290E-01    0.213E+00
RMM:   6    -0.529624611230E+03    0.16439E-02   -0.32761E-02 19394   0.156E-01    0.201E+00
RMM:   7    -0.529602645250E+03    0.21966E-01   -0.23663E-02 19413   0.134E-01    0.105E+00
RMM:   8    -0.529603706728E+03   -0.10615E-02   -0.25946E-02 19403   0.144E-01    0.134E+00
RMM:   9    -0.529598852758E+03    0.48540E-02   -0.12764E-02 19402   0.948E-02    0.975E-01
RMM:  10    -0.529597857055E+03    0.99570E-03   -0.54026E-03 19402   0.628E-02    0.852E-01
RMM:  11    -0.529594765977E+03    0.30911E-02   -0.22897E-03 19390   0.392E-02    0.343E-01
RMM:  12    -0.529595906636E+03   -0.11407E-02   -0.86832E-04 19352   0.252E-02    0.358E-01
RMM:  13    -0.529595802880E+03    0.10376E-03   -0.51959E-04 19197   0.187E-02    0.137E-01
RMM:  14    -0.529597395404E+03   -0.15925E-02   -0.27471E-04 19213   0.137E-02    0.275E-01
RMM:  15    -0.529597597091E+03   -0.20169E-03   -0.17272E-04 18924   0.108E-02    0.628E-02
RMM:  16    -0.529598463250E+03   -0.86616E-03   -0.62843E-05 14088   0.678E-03    0.104E-01
RMM:  17    -0.529599138859E+03   -0.67561E-03   -0.34529E-05 13219   0.540E-03    0.257E-02
RMM:  18    -0.529600550534E+03   -0.14117E-02   -0.13658E-05 12132   0.298E-03    0.261E-02
RMM:  19    -0.529601193149E+03   -0.64261E-03   -0.82478E-06 11729   0.242E-03    0.277E-02
RMM:  20    -0.529602460550E+03   -0.12674E-02   -0.87459E-06 11968   0.208E-03    0.145E-02
RMM:  21    -0.529603231330E+03   -0.77078E-03   -0.43604E-06  9765   0.143E-03    0.217E-02
RMM:  22    -0.529604393722E+03   -0.11624E-02   -0.61600E-06 10406   0.150E-03    0.112E-02
RMM:  23    -0.529607195656E+03   -0.28019E-02   -0.29234E-05 12317   0.234E-03    0.137E-02
RMM:  24    -0.529608036484E+03   -0.84083E-03   -0.77182E-06  8887   0.142E-03    0.110E-02
RMM:  25    -0.529609806303E+03   -0.17698E-02   -0.21904E-05 12005   0.194E-03    0.660E-03
RMM:  26    -0.529610219547E+03   -0.41324E-03   -0.42575E-06  7490   0.106E-03    0.700E-03
RMM:  27    -0.529610858683E+03   -0.63914E-03   -0.66805E-06  8317   0.111E-03    0.312E-03
RMM:  28    -0.529611008673E+03   -0.14999E-03   -0.12831E-06  6309   0.767E-04    0.446E-03
RMM:  29    -0.529611176990E+03   -0.16832E-03   -0.11812E-06  5850   0.727E-04    0.140E-03
RMM:  30    -0.529611239776E+03   -0.62786E-04   -0.51417E-07  4865   0.647E-04    0.228E-03
RMM:  31    -0.529611265467E+03   -0.25691E-04   -0.21860E-07  4138   0.608E-04    0.842E-04
RMM:  32    -0.529611285211E+03   -0.19744E-04   -0.31446E-07  4672   0.639E-04    0.971E-04
RMM:  33    -0.529611288190E+03   -0.29788E-05   -0.72720E-08  3333   0.578E-04
   8 F= -.52961129E+03 E0= -.52962891E+03  d E =-.541294E+00  mag=    65.6927
       N       E                     dE             d eps       ncg     rms          rms(c)
DAV:   1    -0.529472432977E+03    0.13885E+00   -0.15199E+02 19504   0.146E+01    0.163E+00
RMM:   2    -0.529901282219E+03   -0.42885E+00   -0.38742E+00 19410   0.250E+00    0.289E+00
RMM:   3    -0.529896857843E+03    0.44244E-02   -0.15616E-01 19472   0.389E-01    0.377E+00
RMM:   4    -0.529843121348E+03    0.53736E-01   -0.36592E-02 19417   0.170E-01    0.245E+00
RMM:   5    -0.529808720829E+03    0.34401E-01   -0.12579E-02 19397   0.970E-02    0.639E-01
RMM:   6    -0.529810244683E+03   -0.15239E-02   -0.58410E-03 19405   0.656E-02    0.919E-01
RMM:   7    -0.529805594413E+03    0.46503E-02   -0.66873E-03 19400   0.716E-02    0.520E-01
RMM:   8    -0.529806742167E+03   -0.11478E-02   -0.83409E-03 19404   0.807E-02    0.714E-01
RMM:   9    -0.529804468318E+03    0.22738E-02   -0.25711E-03 19391   0.423E-02    0.317E-01
RMM:  10    -0.529804452666E+03    0.15652E-04   -0.70149E-04 19344   0.224E-02    0.328E-01
RMM:  11    -0.529803880107E+03    0.57256E-03   -0.27764E-04 19113   0.137E-02    0.101E-01
RMM:  12    -0.529803886258E+03   -0.61509E-05   -0.17510E-04 19015   0.115E-02    0.132E-01
RMM:  13    -0.529803787780E+03    0.98478E-04   -0.93529E-05 18123   0.814E-03    0.503E-02
RMM:  14    -0.529803860654E+03   -0.72875E-04   -0.37427E-05 13364   0.538E-03    0.100E-01
RMM:  15    -0.529803822414E+03    0.38240E-04   -0.22326E-05 12844   0.442E-03    0.187E-02
RMM:  16    -0.529803884114E+03   -0.61699E-04   -0.74559E-06 11197   0.270E-03    0.348E-02
RMM:  17    -0.529803912078E+03   -0.27964E-04   -0.41981E-06 10925   0.213E-03    0.807E-03
RMM:  18    -0.529803984199E+03   -0.72121E-04   -0.15209E-06 10784   0.117E-03    0.125E-02
RMM:  19    -0.529804010836E+03   -0.26637E-04   -0.57531E-07  5669   0.868E-04    0.547E-03
RMM:  20    -0.529804061566E+03   -0.50730E-04   -0.20412E-07  4284   0.639E-04    0.416E-03
RMM:  21    -0.529804083626E+03   -0.22060E-04   -0.14813E-07  3882   0.632E-04    0.444E-03
RMM:  22    -0.529804150107E+03   -0.66481E-04   -0.62234E-07  5502   0.718E-04    0.342E-03
RMM:  23    -0.529804203193E+03   -0.53086E-04   -0.62063E-07  5556   0.706E-04    0.420E-03
RMM:  24    -0.529804264447E+03   -0.61254E-04   -0.77913E-07  5851   0.719E-04    0.235E-03
RMM:  25    -0.529804319476E+03   -0.55029E-04   -0.10662E-06  6661   0.748E-04    0.410E-03
RMM:  26    -0.529804380206E+03   -0.60730E-04   -0.17872E-06  7329   0.792E-04    0.126E-03
RMM:  27    -0.529804402247E+03   -0.22041E-04   -0.85006E-07  5538   0.629E-04    0.166E-03
RMM:  28    -0.529804407387E+03   -0.51399E-05   -0.29258E-07  4160   0.538E-04
   9 F= -.52980441E+03 E0= -.52982130E+03  d E =-.193119E+00  mag=    65.7150
       N       E                     dE             d eps       ncg     rms          rms(c)
DAV:   1    -0.529790354806E+03    0.14047E-01   -0.17800E+01 19808   0.502E+00    0.558E-01
RMM:   2    -0.529839493775E+03   -0.49139E-01   -0.44853E-01 19407   0.851E-01    0.956E-01
RMM:   3    -0.529839290975E+03    0.20280E-03   -0.18091E-02 19474   0.133E-01    0.129E+00
RMM:   4    -0.529833172934E+03    0.61180E-02   -0.42508E-03 19413   0.581E-02    0.840E-01
RMM:   5    -0.529829140558E+03    0.40324E-02   -0.14692E-03 19396   0.332E-02    0.219E-01
RMM:   6    -0.529829433764E+03   -0.29321E-03   -0.73027E-04 19296   0.232E-02    0.326E-01
RMM:   7    -0.529828832124E+03    0.60164E-03   -0.85371E-04 19367   0.256E-02    0.173E-01
RMM:   8    -0.529829031216E+03   -0.19909E-03   -0.95144E-04 19386   0.273E-02    0.250E-01
RMM:   9    -0.529828732281E+03    0.29894E-03   -0.29376E-04 19124   0.143E-02    0.101E-01
RMM:  10    -0.529828739645E+03   -0.73643E-05   -0.72720E-05 14951   0.731E-03
  10 F= -.52982874E+03 E0= -.52984538E+03  d E =-.217451E+00  mag=    65.7190
       N       E                     dE             d eps       ncg     rms          rms(c)
DAV:   1    -0.529684636795E+03    0.14410E+00   -0.71216E+01 19332   0.100E+01    0.113E+00
RMM:   2    -0.529881858443E+03   -0.19722E+00   -0.18099E+00 19408   0.171E+00    0.185E+00
RMM:   3    -0.529883669059E+03   -0.18106E-02   -0.73045E-02 19473   0.266E-01    0.263E+00
RMM:   4    -0.529858066145E+03    0.25603E-01   -0.17233E-02 19415   0.117E-01    0.167E+00
RMM:   5    -0.529841898211E+03    0.16168E-01   -0.58081E-03 19400   0.660E-02    0.447E-01
RMM:   6    -0.529842946175E+03   -0.10480E-02   -0.29887E-03 19407   0.468E-02    0.670E-01
RMM:   7    -0.529840539672E+03    0.24065E-02   -0.34166E-03 19398   0.511E-02    0.381E-01
RMM:   8    -0.529843477271E+03   -0.29376E-02   -0.35479E-03 19397   0.510E-02    0.835E-01
RMM:   9    -0.529839896010E+03    0.35813E-02   -0.19208E-03 19386   0.373E-02    0.203E-01
RMM:  10    -0.529839950828E+03   -0.54819E-04   -0.43378E-04 19237   0.178E-02    0.205E-01
RMM:  11    -0.529839720173E+03    0.23066E-03   -0.16373E-04 18780   0.105E-02    0.659E-02
RMM:  12    -0.529839774611E+03   -0.54438E-04   -0.86224E-05 18555   0.793E-03    0.122E-01
RMM:  13    -0.529839701361E+03    0.73250E-04   -0.49503E-05 14030   0.607E-03    0.445E-02
RMM:  14    -0.529839739309E+03   -0.37948E-04   -0.26993E-05 13017   0.462E-03    0.638E-02
RMM:  15    -0.529839754629E+03   -0.15320E-04   -0.14974E-05 11996   0.375E-03    0.111E-02
RMM:  16    -0.529839805988E+03   -0.51359E-04   -0.42960E-06 11061   0.209E-03    0.226E-02
RMM:  17    -0.529839830379E+03   -0.24392E-04   -0.21423E-06 10770   0.153E-03    0.591E-03
RMM:  18    -0.529839881763E+03   -0.51383E-04   -0.56197E-07  5818   0.839E-04    0.852E-03
RMM:  19    -0.529839905446E+03   -0.23684E-04   -0.27513E-07  4977   0.743E-04    0.384E-03
RMM:  20    -0.529839950020E+03   -0.44574E-04   -0.20987E-07  4295   0.668E-04    0.306E-03
RMM:  21    -0.529839968975E+03   -0.18954E-04   -0.14553E-07  3831   0.644E-04    0.320E-03
RMM:  22    -0.529840029567E+03   -0.60592E-04   -0.78950E-07  5907   0.738E-04    0.268E-03
RMM:  23    -0.529840068137E+03   -0.38570E-04   -0.43475E-07  5033   0.674E-04    0.329E-03
RMM:  24    -0.529840120373E+03   -0.52237E-04   -0.10645E-06  6261   0.737E-04    0.194E-03
RMM:  25    -0.529840149568E+03   -0.29194E-04   -0.63079E-07  5496   0.663E-04    0.275E-03
RMM:  26    -0.529840181256E+03   -0.31688E-04   -0.11685E-06  6334   0.707E-04    0.902E-04
RMM:  27    -0.529840194635E+03   -0.13380E-04   -0.69380E-07  5433   0.630E-04    0.119E-03
RMM:  28    -0.529840196847E+03   -0.22120E-05   -0.19847E-07  3810   0.534E-04
  11 F= -.52984020E+03 E0= -.52985634E+03  d E =-.228909E+00  mag=    65.7364
       N       E                     dE             d eps       ncg     rms          rms(c)
DAV:   1    -0.529455850136E+03    0.38434E+00   -0.20869E+02 19332   0.171E+01    0.196E+00
RMM:   2    -0.530027721437E+03   -0.57187E+00   -0.53968E+00 19404   0.296E+00    0.261E+00
RMM:   3    -0.530044945857E+03   -0.17224E-01   -0.21377E-01 19479   0.456E-01    0.452E+00
RMM:   4    -0.529967297732E+03    0.77648E-01   -0.47171E-02 19414   0.192E-01    0.266E+00
RMM:   5    -0.529927074618E+03    0.40223E-01   -0.14610E-02 19403   0.104E-01    0.783E-01
RMM:   6    -0.529930326849E+03   -0.32522E-02   -0.98909E-03 19406   0.860E-02    0.124E+00
RMM:   7    -0.529922358646E+03    0.79682E-02   -0.10574E-02 19397   0.893E-02    0.661E-01
RMM:   8    -0.529926015460E+03   -0.36568E-02   -0.11626E-02 19401   0.953E-02    0.104E+00
RMM:   9    -0.529920576346E+03    0.54391E-02   -0.40474E-03 19389   0.534E-02    0.329E-01
RMM:  10    -0.529920945536E+03   -0.36919E-03   -0.99546E-04 19394   0.267E-02    0.406E-01
RMM:  11    -0.529920062825E+03    0.88271E-03   -0.45461E-04 19224   0.178E-02    0.122E-01
RMM:  12    -0.529920192203E+03   -0.12938E-03   -0.26620E-04 19049   0.140E-02    0.176E-01
RMM:  13    -0.529920034967E+03    0.15724E-03   -0.16187E-04 18962   0.108E-02    0.540E-02
RMM:  14    -0.529920163861E+03   -0.12889E-03   -0.67505E-05 16409   0.698E-03    0.138E-01
RMM:  15    -0.529920077780E+03    0.86081E-04   -0.37676E-05 13371   0.555E-03    0.197E-02
RMM:  16    -0.529920134205E+03   -0.56425E-04   -0.10069E-05 11452   0.314E-03    0.415E-02
RMM:  17    -0.529920156509E+03   -0.22304E-04   -0.53470E-06 10903   0.242E-03    0.807E-03
RMM:  18    -0.529920213279E+03   -0.56770E-04   -0.20839E-06 10991   0.137E-03    0.160E-02
RMM:  19    -0.529920245080E+03   -0.31801E-04   -0.91368E-07  6931   0.106E-03    0.415E-03
RMM:  20    -0.529920299661E+03   -0.54581E-04   -0.25588E-07  4419   0.672E-04    0.421E-03
RMM:  21    -0.529920318921E+03   -0.19260E-04   -0.74998E-08  3350   0.619E-04    0.337E-03
RMM:  22    -0.529920395312E+03   -0.76392E-04   -0.58476E-07  5334   0.719E-04    0.242E-03
RMM:  23    -0.529920456007E+03   -0.60695E-04   -0.44430E-07  4975   0.682E-04    0.335E-03
RMM:  24    -0.529920503314E+03   -0.47307E-04   -0.32706E-07  4384   0.633E-04    0.192E-03
RMM:  25    -0.529920580851E+03   -0.77537E-04   -0.73967E-07  5766   0.703E-04    0.291E-03
RMM:  26    -0.529920652516E+03   -0.71665E-04   -0.84406E-07  5834   0.676E-04    0.152E-03
RMM:  27    -0.529920720128E+03   -0.67612E-04   -0.10598E-06  6000   0.671E-04    0.176E-03
RMM:  28    -0.529920738885E+03   -0.18758E-04   -0.21166E-07  3929   0.540E-04    0.959E-04
RMM:  29    -0.529920760574E+03   -0.21689E-04   -0.48085E-07  4703   0.590E-04    0.662E-04
RMM:  30    -0.529920766453E+03   -0.58790E-05   -0.13680E-07  3479   0.537E-04
  12 F= -.52992077E+03 E0= -.52993504E+03  d E =-.805696E-01  mag=    65.7357
       N       E                     dE             d eps       ncg     rms          rms(c)
DAV:   1    -0.529914308993E+03    0.64516E-02   -0.40196E+00 19928   0.238E+00    0.270E-01
RMM:   2    -0.529925088833E+03   -0.10780E-01   -0.10311E-01 19401   0.409E-01    0.338E-01
RMM:   3    -0.529925422865E+03   -0.33403E-03   -0.40627E-03 19483   0.631E-02    0.618E-01
RMM:   4    -0.529923912552E+03    0.15103E-02   -0.87219E-04 19411   0.263E-02    0.342E-01
RMM:   5    -0.529923284433E+03    0.62812E-03   -0.24597E-04 19166   0.136E-02    0.109E-01
RMM:   6    -0.529923367525E+03   -0.83092E-04   -0.19067E-04 19036   0.120E-02    0.170E-01
RMM:   7    -0.529923214625E+03    0.15290E-03   -0.21102E-04 19171   0.126E-02    0.889E-02
RMM:   8    -0.529923306562E+03   -0.91936E-04   -0.21585E-04 19225   0.130E-02    0.149E-01
RMM:   9    -0.529923190736E+03    0.11583E-03   -0.74347E-05 15563   0.736E-03    0.473E-02
RMM:  10    -0.529923198724E+03   -0.79882E-05   -0.17853E-05 12713   0.387E-03
  13 F= -.52992320E+03 E0= -.52993771E+03  d E =-.830019E-01  mag=    65.7353
       N       E                     dE             d eps       ncg     rms          rms(c)
DAV:   1    -0.529792331919E+03    0.13086E+00   -0.10930E+02 19332   0.121E+01    0.138E+00
RMM:   2    -0.530065914783E+03   -0.27358E+00   -0.26636E+00 19387   0.208E+00    0.134E+00
RMM:   3    -0.530072721492E+03   -0.68067E-02   -0.99640E-02 19496   0.316E-01    0.282E+00
RMM:   4    -0.530037917347E+03    0.34804E-01   -0.20931E-02 19417   0.128E-01    0.142E+00
RMM:   5    -0.530028215650E+03    0.97017E-02   -0.66814E-03 19409   0.695E-02    0.793E-01
RMM:   6    -0.530027748523E+03    0.46713E-03   -0.60189E-03 19402   0.683E-02    0.919E-01
RMM:   7    -0.530024186389E+03    0.35621E-02   -0.56257E-03 19402   0.643E-02    0.594E-01
RMM:   8    -0.530028787630E+03   -0.46012E-02   -0.57314E-03 19398   0.647E-02    0.110E+00
RMM:   9    -0.530022134589E+03    0.66530E-02   -0.31045E-03 19401   0.482E-02    0.197E-01
RMM:  10    -0.530022330506E+03   -0.19592E-03   -0.38366E-04 19240   0.172E-02    0.189E-01
RMM:  11    -0.530022118662E+03    0.21184E-03   -0.20310E-04 19082   0.124E-02    0.700E-02
RMM:  12    -0.530022223281E+03   -0.10462E-03   -0.15539E-04 18815   0.105E-02    0.130E-01
RMM:  13    -0.530022167654E+03    0.55627E-04   -0.99521E-05 18754   0.850E-03    0.357E-02
RMM:  14    -0.530022258011E+03   -0.90357E-04   -0.26048E-05 13005   0.450E-03    0.758E-02
RMM:  15    -0.530022271620E+03   -0.13609E-04   -0.13013E-05 11921   0.349E-03    0.153E-02
RMM:  16    -0.530022322298E+03   -0.50678E-04   -0.35409E-06 10984   0.182E-03    0.210E-02
RMM:  17    -0.530022379869E+03   -0.57571E-04   -0.18866E-06 10795   0.132E-03    0.647E-03
RMM:  18    -0.530022482880E+03   -0.10301E-03   -0.73849E-07  5984   0.814E-04    0.702E-03
RMM:  19    -0.530022540391E+03   -0.57511E-04   -0.42147E-07  5560   0.738E-04    0.484E-03
RMM:  20    -0.530022681902E+03   -0.14151E-03   -0.84387E-07  5700   0.777E-04    0.333E-03
RMM:  21    -0.530022743621E+03   -0.61719E-04   -0.31728E-07  4553   0.660E-04    0.372E-03
RMM:  22    -0.530022921983E+03   -0.17836E-03   -0.12527E-06  6113   0.788E-04    0.233E-03
RMM:  23    -0.530023011323E+03   -0.89340E-04   -0.58297E-07  5033   0.660E-04    0.285E-03
RMM:  24    -0.530023173885E+03   -0.16256E-03   -0.12270E-06  5869   0.736E-04    0.170E-03
RMM:  25    -0.530023320338E+03   -0.14645E-03   -0.12801E-06  6180   0.724E-04    0.253E-03
RMM:  26    -0.530023419082E+03   -0.98744E-04   -0.84769E-07  5236   0.650E-04    0.114E-03
RMM:  27    -0.530023537101E+03   -0.11802E-03   -0.13454E-06  6067   0.715E-04    0.158E-03
RMM:  28    -0.530023566401E+03   -0.29300E-04   -0.36865E-07  4352   0.579E-04    0.744E-04
RMM:  29    -0.530023599088E+03   -0.32687E-04   -0.45613E-07  4778   0.601E-04    0.540E-04
RMM:  30    -0.530023610483E+03   -0.11395E-04   -0.13685E-07  3674   0.552E-04    0.902E-04
RMM:  31    -0.530023618854E+03   -0.83709E-05   -0.15875E-07  3746   0.563E-04
  14 F= -.53002362E+03 E0= -.53003780E+03  d E =-.100420E+00  mag=    65.7070
       N       E                     dE             d eps       ncg     rms          rms(c)
DAV:   1    -0.530000592340E+03    0.23018E-01   -0.12752E+01 19708   0.415E+00    0.466E-01
RMM:   2    -0.530032011648E+03   -0.31419E-01   -0.30801E-01 19386   0.710E-01    0.432E-01
RMM:   3    -0.530032147311E+03   -0.13566E-03   -0.11246E-02 19495   0.107E-01    0.888E-01
RMM:   4    -0.530028564200E+03    0.35831E-02   -0.23746E-03 19428   0.432E-02    0.432E-01
RMM:   5    -0.530027864256E+03    0.69994E-03   -0.65264E-04 19411   0.220E-02    0.286E-01
RMM:   6    -0.530027699533E+03    0.16472E-03   -0.70028E-04 19301   0.234E-02    0.296E-01
RMM:   7    -0.530027335347E+03    0.36419E-03   -0.67505E-04 19368   0.223E-02    0.201E-01
RMM:   8    -0.530027832229E+03   -0.49688E-03   -0.64571E-04 19345   0.219E-02    0.370E-01
RMM:   9    -0.530027037831E+03    0.79440E-03   -0.31689E-04 19224   0.152E-02    0.677E-02
RMM:  10    -0.530027087137E+03   -0.49306E-04   -0.41993E-05 13478   0.585E-03    0.639E-02
RMM:  11    -0.530027062976E+03    0.24161E-04   -0.23117E-05 12634   0.449E-03    0.252E-02
RMM:  12    -0.530027072079E+03   -0.91029E-05   -0.19927E-05 12124   0.420E-03
  15 F= -.53002707E+03 E0= -.53004115E+03  d E =-.103873E+00  mag=    65.7012
       N       E                     dE             d eps       ncg     rms          rms(c)
DAV:   1    -0.529782050356E+03    0.24501E+00   -0.11760E+02 19320   0.131E+01    0.140E+00
RMM:   2    -0.530105970132E+03   -0.32392E+00   -0.31607E+00 19399   0.226E+00    0.131E+00
RMM:   3    -0.530123022286E+03   -0.17052E-01   -0.10590E-01 19479   0.329E-01    0.326E+00
RMM:   4    -0.530065852745E+03    0.57170E-01   -0.20976E-02 19453   0.129E-01    0.124E+00
RMM:   5    -0.530059001862E+03    0.68509E-02   -0.66664E-03 19411   0.706E-02    0.740E-01
RMM:   6    -0.530057453356E+03    0.15485E-02   -0.45436E-03 19398   0.598E-02    0.795E-01
RMM:   7    -0.530055349505E+03    0.21039E-02   -0.42071E-03 19405   0.552E-02    0.634E-01
RMM:   8    -0.530058221692E+03   -0.28722E-02   -0.66782E-03 19394   0.713E-02    0.103E+00
RMM:   9    -0.530052579167E+03    0.56425E-02   -0.35073E-03 19407   0.507E-02    0.178E-01
RMM:  10    -0.530052872117E+03   -0.29295E-03   -0.42106E-04 19153   0.178E-02    0.234E-01
RMM:  11    -0.530052620095E+03    0.25202E-03   -0.18752E-04 18923   0.115E-02    0.956E-02
RMM:  12    -0.530052770918E+03   -0.15082E-03   -0.13897E-04 18730   0.989E-03    0.157E-01
RMM:  13    -0.530052736198E+03    0.34721E-04   -0.12494E-04 18842   0.959E-03    0.522E-02
RMM:  14    -0.530052886995E+03   -0.15080E-03   -0.54117E-05 14232   0.643E-03    0.791E-02
RMM:  15    -0.530052947118E+03   -0.60123E-04   -0.28416E-05 13088   0.501E-03    0.194E-02
RMM:  16    -0.530053077105E+03   -0.12999E-03   -0.51256E-06 11168   0.233E-03    0.203E-02
RMM:  17    -0.530053128208E+03   -0.51104E-04   -0.22440E-06 10846   0.149E-03    0.947E-03
RMM:  18    -0.530053323958E+03   -0.19575E-03   -0.13702E-06  6998   0.973E-04    0.815E-03
RMM:  19    -0.530053413739E+03   -0.89781E-04   -0.75429E-07  6455   0.848E-04    0.882E-03
RMM:  20    -0.530053656530E+03   -0.24279E-03   -0.22426E-06  9121   0.993E-04    0.537E-03
RMM:  21    -0.530053790527E+03   -0.13400E-03   -0.91596E-07  5871   0.684E-04    0.671E-03
RMM:  22    -0.530054086491E+03   -0.29596E-03   -0.30036E-06  7238   0.915E-04    0.332E-03
RMM:  23    -0.530054411832E+03   -0.32534E-03   -0.44523E-06  8060   0.100E-03    0.515E-03
RMM:  24    -0.530054550083E+03   -0.13825E-03   -0.16880E-06  6415   0.779E-04    0.233E-03
RMM:  25    -0.530054742288E+03   -0.19221E-03   -0.31577E-06  7597   0.884E-04    0.263E-03
RMM:  26    -0.530054788586E+03   -0.46298E-04   -0.59523E-07  4657   0.614E-04    0.155E-03
RMM:  27    -0.530054852857E+03   -0.64271E-04   -0.11450E-06  6054   0.708E-04    0.154E-03
RMM:  28    -0.530054864446E+03   -0.11589E-04   -0.25648E-07  4210   0.570E-04    0.895E-04
RMM:  29    -0.530054875119E+03   -0.10673E-04   -0.22126E-07  4082   0.569E-04    0.552E-04
RMM:  30    -0.530054878090E+03   -0.29712E-05   -0.87765E-08  3229   0.539E-04
  16 F= -.53005488E+03 E0= -.53006933E+03  d E =-.278060E-01  mag=    65.6717
       N       E                     dE             d eps       ncg     rms          rms(c)
DAV:   1    -0.530027873800E+03    0.27001E-01   -0.15632E+01 19744   0.477E+00    0.512E-01
RMM:   2    -0.530070769189E+03   -0.42895E-01   -0.41988E-01 19400   0.824E-01    0.482E-01
RMM:   3    -0.530070727355E+03    0.41834E-04   -0.13976E-02 19479   0.120E-01    0.105E+00
RMM:   4    -0.530065736545E+03    0.49908E-02   -0.27462E-03 19450   0.466E-02    0.489E-01
RMM:   5    -0.530064585214E+03    0.11513E-02   -0.84343E-04 19409   0.251E-02    0.279E-01
RMM:   6    -0.530064353387E+03    0.23183E-03   -0.59800E-04 19377   0.218E-02    0.281E-01
RMM:   7    -0.530064059125E+03    0.29426E-03   -0.62736E-04 19325   0.213E-02    0.223E-01
RMM:   8    -0.530064572969E+03   -0.51384E-03   -0.88936E-04 19375   0.260E-02    0.407E-01
RMM:   9    -0.530063647649E+03    0.92532E-03   -0.44612E-04 19346   0.181E-02    0.681E-02
RMM:  10    -0.530063696647E+03   -0.48998E-04   -0.57089E-05 13934   0.675E-03    0.825E-02
RMM:  11    -0.530063658466E+03    0.38182E-04   -0.26426E-05 13002   0.473E-03    0.299E-02
RMM:  12    -0.530063670106E+03   -0.11641E-04   -0.25662E-05 12139   0.471E-03    0.405E-02
RMM:  13    -0.530063668822E+03    0.12842E-05   -0.11946E-05 11076   0.346E-03
  17 F= -.53006367E+03 E0= -.53007797E+03  d E =-.365967E-01  mag=    65.6751
       N       E                     dE             d eps       ncg     rms          rms(c)
DAV:   1    -0.529993680173E+03    0.69990E-01   -0.41629E+01 19488   0.791E+00    0.922E-01
RMM:   2    -0.530119588884E+03   -0.12591E+00   -0.12341E+00 19403   0.139E+00    0.767E-01
RMM:   3    -0.530127313398E+03   -0.77245E-02   -0.39768E-02 19468   0.199E-01    0.209E+00
RMM:   4    -0.530103640631E+03    0.23673E-01   -0.85137E-03 19446   0.821E-02    0.739E-01
RMM:   5    -0.530101550268E+03    0.20904E-02   -0.19966E-03 19417   0.390E-02    0.418E-01
RMM:   6    -0.530101254890E+03    0.29538E-03   -0.18193E-03 19400   0.379E-02    0.487E-01
RMM:   7    -0.530100810978E+03    0.44391E-03   -0.16467E-03 19396   0.344E-02    0.423E-01
RMM:   8    -0.530102019355E+03   -0.12084E-02   -0.23782E-03 19393   0.424E-02    0.638E-01
RMM:   9    -0.530099851835E+03    0.21675E-02   -0.12259E-03 19378   0.300E-02    0.107E-01
RMM:  10    -0.530099903288E+03   -0.51453E-04   -0.15041E-04 18864   0.107E-02    0.118E-01
RMM:  11    -0.530099827985E+03    0.75303E-04   -0.67504E-05 15089   0.709E-03    0.535E-02
RMM:  12    -0.530099858315E+03   -0.30330E-04   -0.54434E-05 16937   0.651E-03    0.884E-02
RMM:  13    -0.530099824917E+03    0.33399E-04   -0.31043E-05 13046   0.502E-03    0.335E-02
RMM:  14    -0.530099847662E+03   -0.22746E-04   -0.18500E-05 12510   0.408E-03    0.497E-02
RMM:  15    -0.530099847556E+03    0.10669E-06   -0.10242E-05 11219   0.319E-03
  18 F= -.53009985E+03 E0= -.53011455E+03  d E =-.361787E-01  mag=    65.6864
       N       E                     dE             d eps       ncg     rms          rms(c)
DAV:   1    -0.530099868061E+03   -0.20399E-04   -0.60929E-03 20196   0.955E-02    0.183E-02
RMM:   2    -0.530099958986E+03   -0.90925E-04   -0.21164E-04 19202   0.176E-02    0.815E-02
RMM:   3    -0.530099921665E+03    0.37322E-04   -0.21011E-05 12900   0.430E-03    0.123E-02
RMM:   4    -0.530099941429E+03   -0.19764E-04   -0.29143E-06 10711   0.182E-03    0.214E-02
RMM:   5    -0.530099950603E+03   -0.91747E-05   -0.10342E-06  7791   0.117E-03
  19 F= -.53009995E+03 E0= -.53011466E+03  d E =-.362818E-01  mag=    65.6880
       N       E                     dE             d eps       ncg     rms          rms(c)
DAV:   1    -0.530029585523E+03    0.70356E-01   -0.39488E+01 19352   0.739E+00    0.793E-01
RMM:   2    -0.530130826424E+03   -0.10124E+00   -0.10001E+00 19402   0.127E+00    0.645E-01
RMM:   3    -0.530134096707E+03   -0.32703E-02   -0.32064E-02 19484   0.183E-01    0.166E+00
RMM:   4    -0.530119011639E+03    0.15085E-01   -0.60169E-03 19450   0.696E-02    0.609E-01
RMM:   5    -0.530117805902E+03    0.12057E-02   -0.16875E-03 19415   0.358E-02    0.437E-01
RMM:   6    -0.530116669342E+03    0.11366E-02   -0.16295E-03 19401   0.359E-02    0.335E-01
RMM:   7    -0.530117171040E+03   -0.50170E-03   -0.19054E-03 19395   0.371E-02    0.480E-01
RMM:   8    -0.530116405623E+03    0.76542E-03   -0.23253E-03 19385   0.429E-02    0.254E-01
RMM:   9    -0.530116352454E+03    0.53169E-04   -0.47596E-04 19256   0.184E-02    0.235E-01
RMM:  10    -0.530116083067E+03    0.26939E-03   -0.16454E-04 19030   0.110E-02    0.956E-02
RMM:  11    -0.530116057064E+03    0.26003E-04   -0.53246E-05 13774   0.627E-03    0.612E-02
RMM:  12    -0.530116067827E+03   -0.10763E-04   -0.87016E-05 18504   0.805E-03    0.421E-02
RMM:  13    -0.530116088551E+03   -0.20723E-04   -0.26131E-05 12917   0.450E-03    0.494E-02
RMM:  14    -0.530116122207E+03   -0.33657E-04   -0.15613E-05 11521   0.391E-03    0.401E-02
RMM:  15    -0.530116123845E+03   -0.16382E-05   -0.55274E-06 10818   0.245E-03
  20 F= -.53011612E+03 E0= -.53013120E+03  d E =-.161732E-01  mag=    65.7005
       N       E                     dE             d eps       ncg     rms          rms(c)
DAV:   1    -0.530111614982E+03    0.45072E-02   -0.34508E+00 19616   0.219E+00    0.236E-01
RMM:   2    -0.530120480327E+03   -0.88653E-02   -0.87584E-02 19401   0.375E-01    0.193E-01
RMM:   3    -0.530120349788E+03    0.13054E-03   -0.28059E-03 19477   0.544E-02    0.428E-01
RMM:   4    -0.530119447253E+03    0.90254E-03   -0.53123E-04 19420   0.210E-02    0.162E-01
RMM:   5    -0.530119455903E+03   -0.86507E-05   -0.12414E-04 19067   0.977E-03    0.153E-01
RMM:   6    -0.530119370099E+03    0.85804E-04   -0.14134E-04 18970   0.105E-02    0.121E-01
RMM:   7    -0.530119393619E+03   -0.23520E-04   -0.14327E-04 18851   0.101E-02    0.129E-01
RMM:   8    -0.530119480776E+03   -0.87157E-04   -0.20334E-04 19102   0.125E-02    0.163E-01
RMM:   9    -0.530119362309E+03    0.11847E-03   -0.86304E-05 17734   0.783E-03    0.444E-02
RMM:  10    -0.530119372133E+03   -0.98240E-05   -0.16541E-05 12666   0.370E-03
  21 F= -.53011937E+03 E0= -.53013433E+03  d E =-.194215E-01  mag=    65.7034
       N       E                     dE             d eps       ncg     rms          rms(c)
DAV:   1    -0.530066249227E+03    0.53113E-01   -0.30394E+01 19470   0.641E+00    0.683E-01
RMM:   2    -0.530145052952E+03   -0.78804E-01   -0.77900E-01 19392   0.111E+00    0.526E-01
RMM:   3    -0.530141728644E+03    0.33243E-02   -0.23360E-02 19477   0.157E-01    0.114E+00
RMM:   4    -0.530134502355E+03    0.72263E-02   -0.43480E-03 19435   0.601E-02    0.332E-01
RMM:   5    -0.530135141731E+03   -0.63938E-03   -0.95674E-04 19404   0.274E-02    0.485E-01
RMM:   6    -0.530134110334E+03    0.10314E-02   -0.10854E-03 19374   0.287E-02    0.334E-01
RMM:   7    -0.530134662012E+03   -0.55168E-03   -0.10981E-03 19346   0.279E-02    0.467E-01
RMM:   8    -0.530134476258E+03    0.18575E-03   -0.16607E-03 19356   0.356E-02    0.453E-01
RMM:   9    -0.530133419369E+03    0.10569E-02   -0.59135E-04 19235   0.205E-02    0.973E-02
RMM:  10    -0.530133448929E+03   -0.29560E-04   -0.88977E-05 16208   0.847E-03    0.771E-02
RMM:  11    -0.530133430783E+03    0.18146E-04   -0.35579E-05 13304   0.523E-03    0.567E-02
RMM:  12    -0.530133438320E+03   -0.75367E-05   -0.40541E-05 14176   0.574E-03
  22 F= -.53013344E+03 E0= -.53014823E+03  d E =-.140662E-01  mag=    65.7079
       N       E                     dE             d eps       ncg     rms          rms(c)
DAV:   1    -0.530130885593E+03    0.25452E-02   -0.18106E+00 19960   0.157E+00    0.167E-01
RMM:   2    -0.530135794792E+03   -0.49092E-02   -0.46246E-02 19390   0.270E-01    0.254E-01
RMM:   3    -0.530135707822E+03    0.86970E-04   -0.17600E-03 19469   0.416E-02    0.381E-01
RMM:   4    -0.530134972308E+03    0.73551E-03   -0.33293E-04 19415   0.169E-02    0.139E-01
RMM:   5    -0.530134928899E+03    0.43409E-04   -0.68981E-05 14609   0.755E-03    0.774E-02
RMM:   6    -0.530135002339E+03   -0.73439E-04   -0.69512E-05 18414   0.735E-03    0.135E-01
RMM:   7    -0.530134898783E+03    0.10356E-03   -0.69759E-05 18529   0.728E-03    0.694E-02
RMM:   8    -0.530134966043E+03   -0.67260E-04   -0.90421E-05 18350   0.803E-03    0.121E-01
RMM:   9    -0.530134896561E+03    0.69482E-04   -0.56211E-05 15523   0.671E-03    0.304E-02
RMM:  10    -0.530134902889E+03   -0.63284E-05   -0.66031E-06 10917   0.267E-03
  23 F= -.53013490E+03 E0= -.53014974E+03  d E =-.155308E-01  mag=    65.7101
       N       E                     dE             d eps       ncg     rms          rms(c)
DAV:   1    -0.530095069060E+03    0.39828E-01   -0.22044E+01 19476   0.562E+00    0.608E-01
RMM:   2    -0.530154994809E+03   -0.59926E-01   -0.59177E-01 19407   0.969E-01    0.465E-01
RMM:   3    -0.530153736924E+03    0.12579E-02   -0.17874E-02 19482   0.137E-01    0.111E+00
RMM:   4    -0.530147004792E+03    0.67321E-02   -0.34560E-03 19463   0.530E-02    0.377E-01
RMM:   5    -0.530146954728E+03    0.50064E-04   -0.81604E-04 19389   0.247E-02    0.357E-01
RMM:   6    -0.530146744607E+03    0.21012E-03   -0.78493E-04 19404   0.245E-02    0.383E-01
RMM:   7    -0.530146224926E+03    0.51968E-03   -0.75720E-04 19252   0.231E-02    0.284E-01
RMM:   8    -0.530146759077E+03   -0.53415E-03   -0.11868E-03 19377   0.298E-02    0.434E-01
RMM:   9    -0.530145620152E+03    0.11389E-02   -0.65161E-04 19369   0.221E-02    0.753E-02
RMM:  10    -0.530145680797E+03   -0.60645E-04   -0.67673E-05 14218   0.735E-03    0.938E-02
RMM:  11    -0.530145632550E+03    0.48247E-04   -0.34499E-05 13199   0.539E-03    0.489E-02
RMM:  12    -0.530145629662E+03    0.28875E-05   -0.19550E-05 12595   0.405E-03
  24 F= -.53014563E+03 E0= -.53016046E+03  d E =-.107268E-01  mag=    65.7058
       N       E                     dE             d eps       ncg     rms          rms(c)
DAV:   1    -0.530143150285E+03    0.24823E-02   -0.13720E+00 19984   0.140E+00    0.151E-01
RMM:   2    -0.530146945632E+03   -0.37953E-02   -0.36854E-02 19402   0.242E-01    0.149E-01
RMM:   3    -0.530146963921E+03   -0.18288E-04   -0.12786E-03 19477   0.359E-02    0.317E-01
RMM:   4    -0.530146441968E+03    0.52195E-03   -0.26506E-04 19364   0.146E-02    0.109E-01
RMM:   5    -0.530146436780E+03    0.51875E-05   -0.49465E-05 13814   0.633E-03
  25 F= -.53014644E+03 E0= -.53016119E+03  d E =-.115339E-01  mag=    65.7050
       N       E                     dE             d eps       ncg     rms          rms(c)
DAV:   1    -0.530118348612E+03    0.28093E-01   -0.17145E+01 19392   0.487E+00    0.553E-01
RMM:   2    -0.530168372258E+03   -0.50024E-01   -0.43259E-01 19405   0.836E-01    0.112E+00
RMM:   3    -0.530166215419E+03    0.21568E-02   -0.17649E-02 19476   0.131E-01    0.127E+00
RMM:   4    -0.530158485789E+03    0.77296E-02   -0.38388E-03 19417   0.567E-02    0.697E-01
RMM:   5    -0.530155965063E+03    0.25207E-02   -0.15083E-03 19405   0.334E-02    0.246E-01
RMM:   6    -0.530156321915E+03   -0.35685E-03   -0.66911E-04 19366   0.220E-02    0.373E-01
RMM:   7    -0.530155542104E+03    0.77981E-03   -0.87954E-04 19384   0.259E-02    0.224E-01
RMM:   8    -0.530155753118E+03   -0.21101E-03   -0.67524E-04 19315   0.218E-02    0.306E-01
RMM:   9    -0.530155162965E+03    0.59015E-03   -0.41974E-04 19300   0.183E-02    0.831E-02
RMM:  10    -0.530155157320E+03    0.56453E-05   -0.50184E-05 13681   0.632E-03
  26 F= -.53015516E+03 E0= -.53017001E+03  d E =-.872054E-02  mag=    65.6987
       N       E                     dE             d eps       ncg     rms          rms(c)
DAV:   1    -0.530154169371E+03    0.99359E-03   -0.11265E+00 19920   0.125E+00    0.138E-01
RMM:   2    -0.530157789727E+03   -0.36204E-02   -0.28185E-02 19400   0.214E-01    0.392E-01
RMM:   3    -0.530156865277E+03    0.92445E-03   -0.12062E-03 19469   0.344E-02    0.218E-01
RMM:   4    -0.530156758103E+03    0.10717E-03   -0.18379E-04 19385   0.130E-02    0.133E-01
RMM:   5    -0.530156688746E+03    0.69358E-04   -0.68481E-05 14531   0.732E-03    0.617E-02
RMM:   6    -0.530156808214E+03   -0.11947E-03   -0.73209E-05 18455   0.755E-03    0.117E-01
RMM:   7    -0.530156802631E+03    0.55831E-05   -0.57811E-05 16838   0.662E-03
  27 F= -.53015680E+03 E0= -.53017173E+03  d E =-.103659E-01  mag=    65.6962
       N       E                     dE             d eps       ncg     rms          rms(c)
DAV:   1    -0.530140245754E+03    0.16562E-01   -0.11947E+01 19456   0.387E+00    0.426E-01
RMM:   2    -0.530168944128E+03   -0.28698E-01   -0.26710E-01 19400   0.655E-01    0.644E-01
RMM:   3    -0.530169589921E+03   -0.64579E-03   -0.11310E-02 19483   0.106E-01    0.968E-01
RMM:   4    -0.530165587729E+03    0.40022E-02   -0.23194E-03 19419   0.436E-02    0.594E-01
RMM:   5    -0.530163717789E+03    0.18699E-02   -0.73708E-04 19373   0.237E-02    0.187E-01
RMM:   6    -0.530164037481E+03   -0.31969E-03   -0.63840E-04 19327   0.219E-02    0.348E-01
RMM:   7    -0.530163396623E+03    0.64086E-03   -0.60496E-04 19305   0.209E-02    0.184E-01
RMM:   8    -0.530163767479E+03   -0.37086E-03   -0.61123E-04 19178   0.208E-02    0.307E-01
RMM:   9    -0.530163209496E+03    0.55798E-03   -0.32659E-04 19065   0.152E-02    0.598E-02
RMM:  10    -0.530163239538E+03   -0.30041E-04   -0.36249E-05 13250   0.534E-03    0.642E-02
RMM:  11    -0.530163233641E+03    0.58967E-05   -0.19052E-05 12335   0.407E-03
  28 F= -.53016323E+03 E0= -.53017796E+03  d E =-.643101E-02  mag=    65.6928
       N       E                     dE             d eps       ncg     rms          rms(c)
DAV:   1    -0.530162536292E+03    0.70325E-03   -0.73858E-01 19736   0.963E-01    0.105E-01
RMM:   2    -0.530164508726E+03   -0.19724E-02   -0.16460E-02 19398   0.163E-01    0.237E-01
RMM:   3    -0.530164223839E+03    0.28489E-03   -0.70859E-04 19441   0.265E-02    0.186E-01
RMM:   4    -0.530164130587E+03    0.93252E-04   -0.11421E-04 19135   0.101E-02    0.110E-01
RMM:   5    -0.530164092382E+03    0.38205E-04   -0.40087E-05 13367   0.561E-03    0.536E-02
RMM:   6    -0.530164190877E+03   -0.98496E-04   -0.38035E-05 13396   0.549E-03    0.112E-01
RMM:   7    -0.530164181664E+03    0.92138E-05   -0.57122E-05 17538   0.686E-03
  29 F= -.53016418E+03 E0= -.53017896E+03  d E =-.737903E-02  mag=    65.6912
       N       E                     dE             d eps       ncg     rms          rms(c)
DAV:   1    -0.530152351872E+03    0.11839E-01   -0.93704E+00 19512   0.338E+00    0.362E-01
RMM:   2    -0.530173292797E+03   -0.20941E-01   -0.19959E-01 19401   0.566E-01    0.475E-01
RMM:   3    -0.530173298643E+03   -0.58453E-05   -0.84580E-03 19487   0.919E-02    0.770E-01
RMM:   4    -0.530170316554E+03    0.29821E-02   -0.15675E-03 19429   0.361E-02    0.300E-01
RMM:   5    -0.530170045709E+03    0.27085E-03   -0.29783E-04 19297   0.152E-02    0.179E-01
RMM:   6    -0.530170258859E+03   -0.21315E-03   -0.42808E-04 19227   0.178E-02    0.298E-01
RMM:   7    -0.530169807959E+03    0.45090E-03   -0.36409E-04 19190   0.162E-02    0.172E-01
RMM:   8    -0.530170060810E+03   -0.25285E-03   -0.44629E-04 19291   0.180E-02    0.258E-01
RMM:   9    -0.530169689517E+03    0.37129E-03   -0.25063E-04 19133   0.138E-02    0.571E-02
RMM:  10    -0.530169707381E+03   -0.17864E-04   -0.28522E-05 13111   0.475E-03    0.463E-02
RMM:  11    -0.530169710729E+03   -0.33480E-05   -0.13433E-05 11300   0.346E-03
  30 F= -.53016971E+03 E0= -.53018435E+03  d E =-.552907E-02  mag=    65.6920
       N       E                     dE             d eps       ncg     rms          rms(c)
DAV:   1    -0.530169055547E+03    0.65183E-03   -0.58848E-01 19912   0.848E-01    0.950E-02
RMM:   2    -0.530170669079E+03   -0.16135E-02   -0.12669E-02 19400   0.142E-01    0.252E-01
RMM:   3    -0.530170278348E+03    0.39073E-03   -0.61691E-04 19436   0.244E-02    0.127E-01
RMM:   4    -0.530170302020E+03   -0.23672E-04   -0.93565E-05 18817   0.907E-03    0.124E-01
RMM:   5    -0.530170226964E+03    0.75057E-04   -0.34564E-05 13359   0.533E-03    0.410E-02
RMM:   6    -0.530170275618E+03   -0.48655E-04   -0.31608E-05 13102   0.510E-03    0.761E-02
RMM:   7    -0.530170289901E+03   -0.14283E-04   -0.48803E-05 16566   0.643E-03    0.427E-02
RMM:   8    -0.530170332389E+03   -0.42488E-04   -0.22018E-05 12772   0.425E-03    0.674E-02
RMM:   9    -0.530170338245E+03   -0.58554E-05   -0.12663E-05 11364   0.352E-03
  31 F= -.53017034E+03 E0= -.53018504E+03  d E =-.615658E-02  mag=    65.6919
       N       E                     dE             d eps       ncg     rms          rms(c)
DAV:   1    -0.530161622939E+03    0.87095E-02   -0.62636E+00 19592   0.275E+00    0.290E-01
RMM:   2    -0.530175160901E+03   -0.13538E-01   -0.13066E-01 19388   0.461E-01    0.353E-01
RMM:   3    -0.530175766589E+03   -0.60569E-03   -0.52866E-03 19502   0.727E-02    0.670E-01
RMM:   4    -0.530173761858E+03    0.20047E-02   -0.10360E-03 19404   0.292E-02    0.344E-01
RMM:   5    -0.530173150452E+03    0.61141E-03   -0.28485E-04 19337   0.150E-02    0.133E-01
RMM:   6    -0.530173230239E+03   -0.79787E-04   -0.32635E-04 19216   0.158E-02    0.206E-01
RMM:   7    -0.530172994755E+03    0.23548E-03   -0.33992E-04 19236   0.159E-02    0.108E-01
RMM:   8    -0.530173242516E+03   -0.24776E-03   -0.28914E-04 19189   0.148E-02    0.227E-01
RMM:   9    -0.530172959465E+03    0.28305E-03   -0.11708E-04 18812   0.918E-03    0.480E-02
RMM:  10    -0.530172978268E+03   -0.18804E-04   -0.17381E-05 12794   0.374E-03    0.365E-02
RMM:  11    -0.530172978055E+03    0.21377E-06   -0.10061E-05 10907   0.299E-03
  32 F= -.53017298E+03 E0= -.53018761E+03  d E =-.263981E-02  mag=    65.6934
       N       E                     dE             d eps       ncg     rms          rms(c)
DAV:   1    -0.530172514799E+03    0.46347E-03   -0.87293E-01 19912   0.103E+00    0.111E-01
RMM:   2    -0.530174596556E+03   -0.20818E-02   -0.18330E-02 19388   0.172E-01    0.227E-01
RMM:   3    -0.530174358633E+03    0.23792E-03   -0.81642E-04 19476   0.283E-02    0.197E-01
RMM:   4    -0.530174310970E+03    0.47663E-04   -0.14419E-04 19195   0.110E-02    0.171E-01
RMM:   5    -0.530174140388E+03    0.17058E-03   -0.57583E-05 14154   0.676E-03    0.548E-02
RMM:   6    -0.530174188348E+03   -0.47960E-04   -0.33637E-05 13107   0.518E-03    0.967E-02
RMM:   7    -0.530174153295E+03    0.35053E-04   -0.68315E-05 18295   0.741E-03    0.513E-02
RMM:   8    -0.530174176711E+03   -0.23417E-04   -0.38664E-05 13274   0.549E-03    0.653E-02
RMM:   9    -0.530174166522E+03    0.10190E-04   -0.19645E-05 12001   0.454E-03    0.145E-02
RMM:  10    -0.530174170622E+03   -0.41000E-05   -0.37959E-06 10706   0.212E-03
  33 F= -.53017417E+03 E0= -.53018882E+03  d E =-.383238E-02  mag=    65.6938
       N       E                     dE             d eps       ncg     rms          rms(c)
DAV:   1    -0.530172153690E+03    0.20128E-02   -0.17659E+00 19768   0.153E+00    0.167E-01
RMM:   2    -0.530176630557E+03   -0.44769E-02   -0.43081E-02 19403   0.262E-01    0.215E-01
RMM:   3    -0.530176894949E+03   -0.26439E-03   -0.16663E-03 19487   0.404E-02    0.405E-01
RMM:   4    -0.530176099758E+03    0.79519E-03   -0.34987E-04 19345   0.168E-02    0.200E-01
RMM:   5    -0.530175910503E+03    0.18925E-03   -0.10985E-04 17869   0.924E-03    0.779E-02
RMM:   6    -0.530175975370E+03   -0.64867E-04   -0.85566E-05 18626   0.802E-03    0.139E-01
RMM:   7    -0.530175866852E+03    0.10852E-03   -0.84703E-05 18834   0.803E-03    0.613E-02
RMM:   8    -0.530175938784E+03   -0.71931E-04   -0.98277E-05 18712   0.845E-03    0.121E-01
RMM:   9    -0.530175861471E+03    0.77313E-04   -0.51292E-05 14217   0.649E-03    0.297E-02
RMM:  10    -0.530175866380E+03   -0.49088E-05   -0.86272E-06 10912   0.296E-03
  34 F= -.53017587E+03 E0= -.53019051E+03  d E =-.169576E-02  mag=    65.6946
       N       E                     dE             d eps       ncg     rms          rms(c)
DAV:   1    -0.530175811618E+03    0.49853E-04   -0.69361E-02 20048   0.303E-01    0.347E-02
RMM:   2    -0.530176078306E+03   -0.26669E-03   -0.16985E-03 19384   0.521E-02    0.136E-01
RMM:   3    -0.530175958196E+03    0.12011E-03   -0.80174E-05 18476   0.890E-03    0.414E-02
RMM:   4    -0.530175973055E+03   -0.14859E-04   -0.11348E-05 11372   0.347E-03    0.454E-02
RMM:   5    -0.530175962433E+03    0.10622E-04   -0.48743E-06 10688   0.230E-03    0.201E-02
RMM:   6    -0.530175964555E+03   -0.21217E-05   -0.28736E-06 10604   0.162E-03
  35 F= -.53017596E+03 E0= -.53019061E+03  d E =-.179393E-02  mag=    65.6947
       N       E                     dE             d eps       ncg     rms          rms(c)
DAV:   1    -0.530175921108E+03    0.41326E-04   -0.16362E-02 20100   0.147E-01    0.237E-02
RMM:   2    -0.530176011071E+03   -0.89963E-04   -0.44597E-04 19287   0.260E-02    0.929E-02
RMM:   3    -0.530175959233E+03    0.51838E-04   -0.32860E-05 13244   0.562E-03    0.284E-02
RMM:   4    -0.530175966303E+03   -0.70698E-05   -0.81274E-06 10765   0.294E-03
  36 F= -.53017597E+03 E0= -.53019061E+03  d E =-.179568E-02  mag=    65.6948
       N       E                     dE             d eps       ncg     rms          rms(c)
DAV:   1    -0.530173108646E+03    0.28506E-02   -0.12971E+00 19432   0.141E+00    0.161E-01
RMM:   2    -0.530177171752E+03   -0.40631E-02   -0.39434E-02 19408   0.249E-01    0.197E-01
RMM:   3    -0.530177084493E+03    0.87259E-04   -0.14140E-03 19473   0.370E-02    0.327E-01
RMM:   4    -0.530176579473E+03    0.50502E-03   -0.29730E-04 19320   0.153E-02    0.137E-01
RMM:   5    -0.530176528305E+03    0.51168E-04   -0.61565E-05 14335   0.701E-03    0.846E-02
RMM:   6    -0.530176561169E+03   -0.32864E-04   -0.58227E-05 15757   0.680E-03    0.120E-01
RMM:   7    -0.530176480070E+03    0.81099E-04   -0.59183E-05 16815   0.691E-03    0.638E-02
RMM:   8    -0.530176529371E+03   -0.49301E-04   -0.70436E-05 16714   0.728E-03    0.110E-01
RMM:   9    -0.530176462856E+03    0.66515E-04   -0.49795E-05 14570   0.661E-03    0.305E-02
RMM:  10    -0.530176466375E+03   -0.35189E-05   -0.93257E-06 10961   0.312E-03
  37 F= -.53017647E+03 E0= -.53019108E+03  d E =-.500072E-03  mag=    65.6964
       N       E                     dE             d eps       ncg     rms          rms(c)
DAV:   1    -0.530175934810E+03    0.52805E-03   -0.26262E-01 19888   0.637E-01    0.710E-02
RMM:   2    -0.530176783321E+03   -0.84851E-03   -0.79995E-03 19406   0.112E-01    0.105E-01
RMM:   3    -0.530176822217E+03   -0.38896E-04   -0.28609E-04 19372   0.166E-02    0.175E-01
RMM:   4    -0.530176674317E+03    0.14790E-03   -0.62085E-05 14808   0.718E-03    0.894E-02
RMM:   5    -0.530176641101E+03    0.33216E-04   -0.21069E-05 12907   0.434E-03    0.315E-02
RMM:   6    -0.530176657019E+03   -0.15918E-04   -0.11982E-05 11239   0.330E-03    0.550E-02
RMM:   7    -0.530176645251E+03    0.11768E-04   -0.12582E-05 11087   0.356E-03    0.246E-02
RMM:   8    -0.530176661703E+03   -0.16452E-04   -0.19184E-05 12467   0.418E-03    0.463E-02
RMM:   9    -0.530176653208E+03    0.84956E-05   -0.11238E-05 10986   0.342E-03
  38 F= -.53017665E+03 E0= -.53019126E+03  d E =-.686905E-03  mag=    65.6969
       N       E                     dE             d eps       ncg     rms          rms(c)
DAV:   1    -0.530176292995E+03    0.36871E-03   -0.12603E-01 20066   0.441E-01    0.511E-02
RMM:   2    -0.530176734417E+03   -0.44142E-03   -0.38663E-03 19406   0.780E-02    0.112E-01
RMM:   3    -0.530176666561E+03    0.67856E-04   -0.15213E-04 19220   0.121E-02    0.937E-02
RMM:   4    -0.530176649627E+03    0.16934E-04   -0.29340E-05 13246   0.511E-03    0.689E-02
RMM:   5    -0.530176624927E+03    0.24700E-04   -0.12283E-05 11862   0.340E-03    0.284E-02
RMM:   6    -0.530176627762E+03   -0.28354E-05   -0.49767E-06 10672   0.209E-03
  39 F= -.53017663E+03 E0= -.53019122E+03  d E =-.661459E-03  mag=    65.6972
       N       E                     dE             d eps       ncg     rms          rms(c)
DAV:   1    -0.530175056208E+03    0.15687E-02   -0.81805E-01 19424   0.113E+00    0.129E-01
RMM:   2    -0.530177836232E+03   -0.27800E-02   -0.24443E-02 19397   0.197E-01    0.274E-01
RMM:   3    -0.530177491102E+03    0.34513E-03   -0.92850E-04 19455   0.297E-02    0.251E-01
RMM:   4    -0.530177388735E+03    0.10237E-03   -0.19919E-04 19307   0.127E-02    0.209E-01
RMM:   5    -0.530177129691E+03    0.25904E-03   -0.84915E-05 16133   0.806E-03    0.570E-02
RMM:   6    -0.530177184977E+03   -0.55286E-04   -0.42554E-05 13418   0.582E-03    0.107E-01
RMM:   7    -0.530177120030E+03    0.64947E-04   -0.59216E-05 18012   0.709E-03    0.546E-02
RMM:   8    -0.530177135795E+03   -0.15765E-04   -0.44536E-05 13375   0.592E-03    0.697E-02
RMM:   9    -0.530177109919E+03    0.25875E-04   -0.24434E-05 12684   0.503E-03    0.190E-02
RMM:  10    -0.530177112003E+03   -0.20835E-05   -0.45115E-06 10632   0.232E-03
  40 F= -.53017711E+03 E0= -.53019174E+03  d E =-.484241E-03  mag=    65.6986
       N       E                     dE             d eps       ncg     rms          rms(c)
DAV:   1    -0.530176929714E+03    0.18021E-03   -0.28127E-02 20168   0.209E-01    0.294E-02
RMM:   2    -0.530177080023E+03   -0.15031E-03   -0.88450E-04 19393   0.370E-02    0.109E-01
RMM:   3    -0.530177006052E+03    0.73971E-04   -0.44288E-05 13744   0.657E-03    0.340E-02
RMM:   4    -0.530177015489E+03   -0.94372E-05   -0.11786E-05 11458   0.355E-03
  41 F= -.53017702E+03 E0= -.53019162E+03  d E =-.387727E-03  mag=    65.6990
       N       E                     dE             d eps       ncg     rms          rms(c)
DAV:   1    -0.530176150682E+03    0.85537E-03   -0.54930E-01 19428   0.903E-01    0.982E-02
RMM:   2    -0.530177696091E+03   -0.15454E-02   -0.14871E-02 19380   0.155E-01    0.126E-01
RMM:   3    -0.530177903238E+03   -0.20715E-03   -0.52898E-04 19445   0.225E-02    0.274E-01
RMM:   4    -0.530177439144E+03    0.46409E-03   -0.11594E-04 19130   0.976E-03    0.852E-02
RMM:   5    -0.530177437691E+03    0.14534E-05   -0.30161E-05 13258   0.504E-03
  42 F= -.53017744E+03 E0= -.53019215E+03  d E =-.422202E-03  mag=    65.6992
       N       E                     dE             d eps       ncg     rms          rms(c)
DAV:   1    -0.530177009117E+03    0.43003E-03   -0.10700E-01 19920   0.399E-01    0.721E-02
RMM:   2    -0.530178022988E+03   -0.10139E-02   -0.32744E-03 19409   0.702E-02    0.376E-01
RMM:   3    -0.530177206115E+03    0.81687E-03   -0.32699E-04 19334   0.163E-02    0.767E-02
RMM:   4    -0.530177242866E+03   -0.36752E-04   -0.40043E-05 13559   0.596E-03    0.617E-02
RMM:   5    -0.530177230721E+03    0.12145E-04   -0.14955E-05 11727   0.389E-03    0.447E-02
RMM:   6    -0.530177230091E+03    0.62995E-06   -0.97774E-06 11036   0.304E-03
  43 F= -.53017723E+03 E0= -.53019189E+03  d E =-.214602E-03  mag=    65.6993
       N       E                     dE             d eps       ncg     rms          rms(c)
DAV:   1    -0.530177410691E+03   -0.17997E-03   -0.34207E-01 19480   0.672E-01    0.108E-01
RMM:   2    -0.530180394256E+03   -0.29836E-02   -0.88437E-03 19398   0.116E-01    0.625E-01
RMM:   3    -0.530178086122E+03    0.23081E-02   -0.80421E-04 19399   0.258E-02    0.154E-01
RMM:   4    -0.530178121905E+03   -0.35783E-04   -0.12976E-04 19026   0.106E-02    0.107E-01
RMM:   5    -0.530178077152E+03    0.44754E-04   -0.38284E-05 13314   0.566E-03    0.652E-02
RMM:   6    -0.530178063204E+03    0.13948E-04   -0.17435E-05 12611   0.400E-03    0.401E-02
RMM:   7    -0.530178086582E+03   -0.23378E-04   -0.27260E-05 12914   0.468E-03    0.756E-02
RMM:   8    -0.530178056677E+03    0.29905E-04   -0.33837E-05 13178   0.557E-03    0.168E-02
RMM:   9    -0.530178067185E+03   -0.10508E-04   -0.10210E-05 10820   0.336E-03    0.248E-02
RMM:  10    -0.530178065438E+03    0.17468E-05   -0.34447E-06 10558   0.199E-03
  44 F= -.53017807E+03 E0= -.53019283E+03  d E =-.835347E-03  mag=    65.6986
       N       E                     dE             d eps       ncg     rms          rms(c)
DAV:   1    -0.530177537728E+03    0.52946E-03   -0.19745E-01 19744   0.510E-01    0.568E-02
RMM:   2    -0.530178045538E+03   -0.50781E-03   -0.45864E-03 19391   0.859E-02    0.103E-01
RMM:   3    -0.530178019158E+03    0.26380E-04   -0.19262E-04 19339   0.137E-02    0.120E-01
RMM:   4    -0.530177967438E+03    0.51720E-04   -0.34916E-05 13391   0.563E-03    0.732E-02
RMM:   5    -0.530177943042E+03    0.24397E-04   -0.14856E-05 12444   0.371E-03    0.311E-02
RMM:   6    -0.530177950668E+03   -0.76260E-05   -0.76229E-06 10810   0.259E-03
  45 F= -.53017795E+03 E0= -.53019273E+03  d E =-.720577E-03  mag=    65.6980
       N       E                     dE             d eps       ncg     rms          rms(c)
DAV:   1    -0.530177578691E+03    0.36435E-03   -0.21353E-01 19572   0.550E-01    0.626E-02
RMM:   2    -0.530178246032E+03   -0.66734E-03   -0.56434E-03 19394   0.947E-02    0.139E-01
RMM:   3    -0.530178155319E+03    0.90713E-04   -0.21897E-04 19331   0.143E-02    0.126E-01
RMM:   4    -0.530178114555E+03    0.40764E-04   -0.48314E-05 13862   0.636E-03    0.994E-02
RMM:   5    -0.530178059617E+03    0.54938E-04   -0.23546E-05 13009   0.461E-03    0.286E-02
RMM:   6    -0.530178073467E+03   -0.13850E-04   -0.11337E-05 11366   0.315E-03    0.537E-02
RMM:   7    -0.530178058609E+03    0.14858E-04   -0.17542E-05 11073   0.411E-03    0.296E-02
RMM:   8    -0.530178061783E+03   -0.31740E-05   -0.12876E-05 11360   0.356E-03
  46 F= -.53017806E+03 E0= -.53019288E+03  d E =-.111116E-03  mag=    65.6970
       N       E                     dE             d eps       ncg     rms          rms(c)
DAV:   1    -0.530177876374E+03    0.18224E-03   -0.30305E-02 19944   0.207E-01    0.257E-02
RMM:   2    -0.530177969594E+03   -0.93220E-04   -0.81737E-04 19366   0.358E-02    0.475E-02
RMM:   3    -0.530177957765E+03    0.11828E-04   -0.33313E-05 13363   0.583E-03    0.418E-02
RMM:   4    -0.530177952495E+03    0.52705E-05   -0.78492E-06 10668   0.308E-03
  47 F= -.53017795E+03 E0= -.53019276E+03  d E =-.182693E-05  mag=    65.6967
       N       E                     dE             d eps       ncg     rms          rms(c)
DAV:   1    -0.530177477350E+03    0.48041E-03   -0.19570E-01 19428   0.525E-01    0.593E-02
RMM:   2    -0.530178050119E+03   -0.57277E-03   -0.52207E-03 19395   0.911E-02    0.104E-01
RMM:   3    -0.530178044185E+03    0.59341E-05   -0.19422E-04 19345   0.136E-02    0.139E-01
RMM:   4    -0.530177942772E+03    0.10141E-03   -0.36680E-05 13401   0.574E-03    0.666E-02
RMM:   5    -0.530177928034E+03    0.14739E-04   -0.13938E-05 12250   0.363E-03    0.328E-02
RMM:   6    -0.530177935908E+03   -0.78747E-05   -0.11272E-05 11103   0.316E-03
  48 F= -.53017794E+03 E0= -.53019275E+03  d E =0.165866E-04  mag=    65.6962
