       N       E                     dE             d eps       ncg     rms          rms(c)
DAV:   1     0.165472156701E+05    0.16547E+05   -0.11484E+06 20696   0.116E+03
DAV:   2     0.127101308498E+03   -0.16420E+05   -0.15945E+05 18264   0.356E+02
DAV:   3    -0.706929410561E+03   -0.83403E+03   -0.78791E+03 18940   0.707E+01
DAV:   4    -0.796116490646E+03   -0.89187E+02   -0.86346E+02 26880   0.161E+01
DAV:   5    -0.805807422512E+03   -0.96909E+01   -0.96812E+01 26296   0.367E+00    0.693E+01
RMM:   6    -0.147625415398E+04   -0.67045E+03   -0.48780E+02 17666   0.105E+01    0.223E+02
RMM:   7    -0.793510781832E+03    0.68274E+03   -0.12543E+02 16815   0.675E+00    0.520E+01
RMM:   8    -0.825659676041E+03   -0.32149E+02   -0.11185E+02 16683   0.742E+00    0.528E+01
RMM:   9    -0.742702877846E+03    0.82957E+02   -0.39134E+01 16508   0.445E+00    0.321E+01
RMM:  10    -0.736438046727E+03    0.62648E+01   -0.11229E+01 16704   0.245E+00    0.318E+01
RMM:  11    -0.718087622062E+03    0.18350E+02   -0.56126E+00 16579   0.185E+00    0.228E+01
RMM:  12    -0.710855309348E+03    0.72323E+01   -0.71277E+00 16518   0.184E+00    0.159E+01
RMM:  13    -0.713429326305E+03   -0.25740E+01   -0.20509E+00 16678   0.101E+00    0.199E+01
RMM:  14    -0.716521440933E+03   -0.30921E+01   -0.17743E+00 16546   0.968E-01    0.146E+01
RMM:  15    -0.723718311104E+03   -0.71969E+01   -0.37768E+00 16497   0.136E+00    0.138E+01
RMM:  16    -0.731787782316E+03   -0.80695E+01   -0.13332E+01 16445   0.218E+00    0.129E+01
RMM:  17    -0.733380778778E+03   -0.15930E+01   -0.75834E+00 16454   0.160E+00    0.122E+01
RMM:  18    -0.734946732834E+03   -0.15660E+01   -0.25273E+00 16539   0.906E-01    0.156E+01
RMM:  19    -0.734822732676E+03    0.12400E+00   -0.21901E+00 16462   0.945E-01    0.126E+01
RMM:  20    -0.734090525628E+03    0.73221E+00   -0.16380E+00 16447   0.807E-01    0.879E+00
RMM:  21    -0.733576849413E+03    0.51368E+00   -0.11023E+00 16470   0.632E-01    0.807E+00
RMM:  22    -0.732758820485E+03    0.81803E+00   -0.43860E-01 16484   0.396E-01    0.727E+00
RMM:  23    -0.732100088873E+03    0.65873E+00   -0.16762E-01 16586   0.259E-01    0.597E+00
RMM:  24    -0.731127874941E+03    0.97221E+00   -0.10606E-01 16460   0.223E-01    0.490E+00
RMM:  25    -0.731144897902E+03   -0.17023E-01   -0.12715E-01 16466   0.237E-01    0.475E+00
RMM:  26    -0.731723354136E+03   -0.57846E+00   -0.14214E-01 16471   0.221E-01    0.467E+00
RMM:  27    -0.733014020167E+03   -0.12907E+01   -0.40338E-01 16481   0.334E-01    0.430E+00
RMM:  28    -0.734296712609E+03   -0.12827E+01   -0.30590E-01 16478   0.306E-01    0.367E+00
RMM:  29    -0.735485634495E+03   -0.11889E+01   -0.23483E-01 16483   0.329E-01    0.357E+00
RMM:  30    -0.736547729411E+03   -0.10621E+01   -0.15295E-01 16473   0.272E-01    0.294E+00
RMM:  31    -0.738004444237E+03   -0.14567E+01   -0.13237E-01 16538   0.236E-01    0.253E+00
RMM:  32    -0.742116521810E+03   -0.41121E+01   -0.53791E-01 16461   0.452E-01    0.192E+00
RMM:  33    -0.747358213844E+03   -0.52417E+01   -0.54678E-01 16456   0.444E-01    0.224E+00
RMM:  34    -0.752266042810E+03   -0.49078E+01   -0.11218E+00 16442   0.564E-01    0.166E+00
RMM:  35    -0.755337702044E+03   -0.30717E+01   -0.43703E-01 16445   0.368E-01    0.160E+00
RMM:  36    -0.758425642027E+03   -0.30879E+01   -0.67162E-01 16480   0.396E-01    0.124E+00
RMM:  37    -0.761704777224E+03   -0.32791E+01   -0.64477E-01 16553   0.401E-01    0.117E+00
RMM:  38    -0.764807208858E+03   -0.31024E+01   -0.90605E-01 16693   0.415E-01    0.103E+00
RMM:  39    -0.768493737535E+03   -0.36865E+01   -0.13150E+00 16842   0.469E-01    0.954E-01
RMM:  40    -0.770531116978E+03   -0.20374E+01   -0.92543E-01 17216   0.348E-01    0.875E-01
RMM:  41    -0.771465588801E+03   -0.93447E+00   -0.41747E-01 17683   0.209E-01    0.722E-01
RMM:  42    -0.772242813506E+03   -0.77722E+00   -0.22609E-01 17567   0.163E-01    0.586E-01
RMM:  43    -0.772971706129E+03   -0.72889E+00   -0.14320E-01 17929   0.132E-01    0.461E-01
RMM:  44    -0.773264468021E+03   -0.29276E+00   -0.48183E-02 19270   0.757E-02    0.377E-01
RMM:  45    -0.773537111253E+03   -0.27264E+00   -0.16150E-02 18731   0.502E-02    0.347E-01
RMM:  46    -0.773853201438E+03   -0.31609E+00   -0.19061E-02 17742   0.558E-02    0.315E-01
RMM:  47    -0.773987610386E+03   -0.13441E+00   -0.13720E-02 18028   0.473E-02    0.256E-01
RMM:  48    -0.774127537508E+03   -0.13993E+00   -0.77518E-03 17837   0.348E-02    0.215E-01
RMM:  49    -0.774248439803E+03   -0.12090E+00   -0.44872E-03 16856   0.309E-02    0.193E-01
RMM:  50    -0.774325036057E+03   -0.76596E-01   -0.48438E-03 17235   0.280E-02    0.119E-01
RMM:  51    -0.774334993148E+03   -0.99571E-02   -0.13210E-03 17264   0.164E-02    0.121E-01
RMM:  52    -0.774351151365E+03   -0.16158E-01   -0.69123E-04 15203   0.136E-02    0.647E-02
RMM:  53    -0.774364377250E+03   -0.13226E-01   -0.71603E-04 14847   0.117E-02    0.701E-02
RMM:  54    -0.774371753070E+03   -0.73758E-02   -0.44880E-04 14357   0.802E-03    0.430E-02
RMM:  55    -0.774379880728E+03   -0.81277E-02   -0.29610E-04 13851   0.668E-03    0.355E-02
RMM:  56    -0.774385846197E+03   -0.59655E-02   -0.19654E-04 13992   0.541E-03    0.312E-02
RMM:  57    -0.774394277401E+03   -0.84312E-02   -0.15893E-04 13052   0.488E-03    0.254E-02
RMM:  58    -0.774399429143E+03   -0.51517E-02   -0.89413E-05 12260   0.370E-03    0.202E-02
RMM:  59    -0.774403613909E+03   -0.41848E-02   -0.69734E-05 11923   0.321E-03    0.177E-02
RMM:  60    -0.774407786328E+03   -0.41724E-02   -0.87567E-05 12413   0.333E-03
   1 F= -.77440779E+03 E0= -.77453599E+03  d E =-.774408E+03  mag=    62.5383
       N       E                     dE             d eps       ncg     rms          rms(c)
DAV:   1    -0.769119937351E+03    0.52837E+01   -0.55371E+02 19984   0.241E+01    0.557E+00
RMM:   2    -0.781961321935E+03   -0.12841E+02   -0.11900E+02 19260   0.484E+00    0.109E+01
RMM:   3    -0.780039701826E+03    0.19216E+01   -0.47374E+00 16580   0.107E+00    0.151E+01
RMM:   4    -0.778582665234E+03    0.14570E+01   -0.10161E+00 16467   0.582E-01    0.408E+00
RMM:   5    -0.778576566795E+03    0.60984E-02   -0.22548E-01 16479   0.289E-01    0.496E+00
RMM:   6    -0.778472878305E+03    0.10369E+00   -0.95141E-02 16561   0.182E-01    0.331E+00
RMM:   7    -0.778376751229E+03    0.96127E-01   -0.71839E-02 16461   0.163E-01    0.176E+00
RMM:   8    -0.778398898960E+03   -0.22148E-01   -0.91861E-02 16446   0.185E-01    0.242E+00
RMM:   9    -0.778376460092E+03    0.22439E-01   -0.72817E-02 16454   0.169E-01    0.138E+00
RMM:  10    -0.778367903507E+03    0.85566E-02   -0.32514E-02 16501   0.114E-01    0.140E+00
RMM:  11    -0.778357751619E+03    0.10152E-01   -0.14239E-02 15920   0.744E-02    0.900E-01
RMM:  12    -0.778356625951E+03    0.11257E-02   -0.30660E-03 15823   0.381E-02    0.626E-01
RMM:  13    -0.778357293361E+03   -0.66741E-03   -0.23644E-03 15715   0.327E-02    0.565E-01
RMM:  14    -0.778357633860E+03   -0.34050E-03   -0.25129E-03 16016   0.324E-02    0.525E-01
RMM:  15    -0.778356371445E+03    0.12624E-02   -0.18063E-03 15135   0.261E-02    0.221E-01
RMM:  16    -0.778356396463E+03   -0.25018E-04   -0.41592E-04 15270   0.140E-02    0.109E-01
RMM:  17    -0.778356685776E+03   -0.28931E-03   -0.87259E-05 13414   0.632E-03    0.913E-02
RMM:  18    -0.778356906552E+03   -0.22078E-03   -0.53362E-05 12864   0.459E-03    0.625E-02
RMM:  19    -0.778357104033E+03   -0.19748E-03   -0.42502E-05 11979   0.407E-03    0.592E-02
RMM:  20    -0.778357170117E+03   -0.66084E-04   -0.22473E-05  9833   0.322E-03    0.382E-02
RMM:  21    -0.778357279350E+03   -0.10923E-03   -0.18175E-05  9654   0.278E-03    0.382E-02
RMM:  22    -0.778357423077E+03   -0.14373E-03   -0.27249E-05  9995   0.266E-03    0.302E-02
RMM:  23    -0.778357580236E+03   -0.15716E-03   -0.23236E-05  9747   0.238E-03    0.254E-02
RMM:  24    -0.778357884078E+03   -0.30384E-03   -0.55386E-05 11073   0.275E-03    0.216E-02
RMM:  25    -0.778358051154E+03   -0.16708E-03   -0.27483E-05  9792   0.222E-03    0.168E-02
RMM:  26    -0.778358419641E+03   -0.36849E-03   -0.31562E-05 10019   0.209E-03    0.123E-02
RMM:  27    -0.778358655913E+03   -0.23627E-03   -0.12893E-05  8301   0.146E-03    0.992E-03
RMM:  28    -0.778359138832E+03   -0.48292E-03   -0.16323E-05  9318   0.150E-03    0.797E-03
RMM:  29    -0.778359538521E+03   -0.39969E-03   -0.10935E-05  8361   0.123E-03    0.767E-03
RMM:  30    -0.778359975629E+03   -0.43711E-03   -0.10028E-05  8028   0.115E-03    0.634E-03
RMM:  31    -0.778360455057E+03   -0.47943E-03   -0.11098E-05  7415   0.112E-03    0.544E-03
RMM:  32    -0.778360798830E+03   -0.34377E-03   -0.74000E-06  7015   0.995E-04    0.534E-03
RMM:  33    -0.778361149716E+03   -0.35089E-03   -0.71094E-06  6941   0.952E-04    0.362E-03
RMM:  34    -0.778361473187E+03   -0.32347E-03   -0.52182E-06  6722   0.893E-04    0.307E-03
RMM:  35    -0.778361793918E+03   -0.32073E-03   -0.47670E-06  7086   0.877E-04    0.271E-03
RMM:  36    -0.778362081387E+03   -0.28747E-03   -0.35443E-06  5917   0.805E-04    0.208E-03
RMM:  37    -0.778362393248E+03   -0.31186E-03   -0.39429E-06  6757   0.942E-04    0.171E-03
RMM:  38    -0.778362617077E+03   -0.22383E-03   -0.28319E-06  6334   0.853E-04    0.138E-03
RMM:  39    -0.778362750750E+03   -0.13367E-03   -0.19738E-06  5593   0.766E-04    0.982E-04
RMM:  40    -0.778362859157E+03   -0.10841E-03   -0.22160E-06  6896   0.879E-04    0.869E-04
RMM:  41    -0.778362893537E+03   -0.34380E-04   -0.91469E-07  4593   0.649E-04    0.685E-04
RMM:  42    -0.778362910925E+03   -0.17388E-04   -0.63641E-07  4729   0.646E-04    0.389E-04
RMM:  43    -0.778362918886E+03   -0.79602E-05   -0.37214E-07  3973   0.569E-04
   2 F= -.77836292E+03 E0= -.77848525E+03  d E =-.395513E+01  mag=    62.8277
       N       E                     dE             d eps       ncg     rms          rms(c)
DAV:   1    -0.778367838071E+03   -0.49271E-02   -0.57126E-01 19784   0.936E-01    0.136E-01
RMM:   2    -0.778379289908E+03   -0.11452E-01   -0.11714E-01 16130   0.191E-01    0.131E-01
RMM:   3    -0.778375602464E+03    0.36874E-02   -0.27950E-03 16627   0.354E-02    0.330E-01
RMM:   4    -0.778374316781E+03    0.12857E-02   -0.30949E-04 14441   0.112E-02    0.982E-02
RMM:   5    -0.778374458294E+03   -0.14151E-03   -0.15411E-04 13546   0.828E-03    0.915E-02
RMM:   6    -0.778374581820E+03   -0.12353E-03   -0.12496E-04 13319   0.707E-03    0.178E-01
RMM:   7    -0.778374467873E+03    0.11395E-03   -0.10717E-04 12675   0.649E-03    0.531E-02
RMM:   8    -0.778374492546E+03   -0.24673E-04   -0.51187E-05 11890   0.466E-03    0.331E-02
RMM:   9    -0.778374498705E+03   -0.61594E-05   -0.14715E-05  8455   0.281E-03
   3 F= -.77837450E+03 E0= -.77849666E+03  d E =-.396671E+01  mag=    62.8314
       N       E                     dE             d eps       ncg     rms          rms(c)
DAV:   1    -0.778361481242E+03    0.13011E-01   -0.22761E+00 19784   0.188E+00    0.276E-01
RMM:   2    -0.778408383297E+03   -0.46902E-01   -0.47257E-01 16289   0.387E-01    0.473E-01
RMM:   3    -0.778390808583E+03    0.17575E-01   -0.11317E-02 17004   0.721E-02    0.671E-01
RMM:   4    -0.778388196877E+03    0.26117E-02   -0.13704E-03 14972   0.225E-02    0.204E-01
RMM:   5    -0.778388394585E+03   -0.19771E-03   -0.55731E-04 14839   0.152E-02    0.204E-01
RMM:   6    -0.778388662896E+03   -0.26831E-03   -0.41873E-04 14608   0.125E-02    0.269E-01
RMM:   7    -0.778388392805E+03    0.27009E-03   -0.47900E-04 14619   0.130E-02    0.125E-01
RMM:   8    -0.778388402446E+03   -0.96410E-05   -0.24383E-04 13810   0.950E-03    0.134E-01
RMM:   9    -0.778388351949E+03    0.50496E-04   -0.67892E-05 12507   0.544E-03    0.697E-02
RMM:  10    -0.778388351918E+03    0.31083E-07   -0.48171E-05 11756   0.475E-03
   4 F= -.77838835E+03 E0= -.77851009E+03  d E =-.398057E+01  mag=    62.8430
       N       E                     dE             d eps       ncg     rms          rms(c)
DAV:   1    -0.778273013251E+03    0.11534E+00   -0.90441E+00 19984   0.378E+00    0.542E-01
RMM:   2    -0.778462347059E+03   -0.18933E+00   -0.19269E+00 16737   0.789E-01    0.538E-01
RMM:   3    -0.778402573979E+03    0.59773E-01   -0.48321E-02 18266   0.147E-01    0.135E+00
RMM:   4    -0.778384600187E+03    0.17974E-01   -0.50816E-03 16296   0.445E-02    0.409E-01
RMM:   5    -0.778384745456E+03   -0.14527E-03   -0.22176E-03 15082   0.305E-02    0.316E-01
RMM:   6    -0.778386402886E+03   -0.16574E-02   -0.16834E-03 15087   0.254E-02    0.683E-01
RMM:   7    -0.778384522138E+03    0.18807E-02   -0.16315E-03 14961   0.242E-02    0.217E-01
RMM:   8    -0.778384439955E+03    0.82182E-04   -0.82569E-04 14827   0.177E-02    0.113E-01
RMM:   9    -0.778384480332E+03   -0.40377E-04   -0.28174E-04 14257   0.108E-02    0.127E-01
RMM:  10    -0.778384444266E+03    0.36066E-04   -0.12106E-04 13356   0.728E-03    0.150E-01
RMM:  11    -0.778384333223E+03    0.11104E-03   -0.49385E-05 11716   0.475E-03    0.331E-02
RMM:  12    -0.778384325445E+03    0.77785E-05   -0.17868E-05  9959   0.317E-03
   5 F= -.77838433E+03 E0= -.77850476E+03  d E =-.397654E+01  mag=    62.8741
       N       E                     dE             d eps       ncg     rms          rms(c)
DAV:   1    -0.778358032645E+03    0.26301E-01   -0.28049E+00 20072   0.215E+00    0.296E-01
RMM:   2    -0.778415599760E+03   -0.57567E-01   -0.58200E-01 16364   0.431E-01    0.335E-01
RMM:   3    -0.778396093055E+03    0.19507E-01   -0.13830E-02 17771   0.811E-02    0.706E-01
RMM:   4    -0.778390896298E+03    0.51968E-02   -0.16406E-03 15840   0.247E-02    0.253E-01
RMM:   5    -0.778390832545E+03    0.63752E-04   -0.79502E-04 14825   0.185E-02    0.190E-01
RMM:   6    -0.778391220353E+03   -0.38781E-03   -0.51058E-04 14942   0.139E-02    0.331E-01
RMM:   7    -0.778390975026E+03    0.24533E-03   -0.47929E-04 14457   0.132E-02    0.148E-01
RMM:   8    -0.778391013809E+03   -0.38783E-04   -0.35363E-04 14428   0.116E-02    0.864E-02
RMM:   9    -0.778391047140E+03   -0.33331E-04   -0.88994E-05 12776   0.617E-03    0.649E-02
RMM:  10    -0.778391130358E+03   -0.83218E-04   -0.36282E-05 11133   0.411E-03    0.102E-01
RMM:  11    -0.778391143676E+03   -0.13318E-04   -0.24506E-05 10109   0.351E-03    0.234E-02
RMM:  12    -0.778391178097E+03   -0.34421E-04   -0.62630E-06  8283   0.197E-03    0.154E-02
RMM:  13    -0.778391231867E+03   -0.53770E-04   -0.22616E-06  7857   0.116E-03    0.748E-03
RMM:  14    -0.778391260306E+03   -0.28439E-04   -0.79113E-07  5364   0.691E-04    0.524E-03
RMM:  15    -0.778391305911E+03   -0.45606E-04   -0.80339E-07  4499   0.649E-04    0.310E-03
RMM:  16    -0.778391337166E+03   -0.31255E-04   -0.45594E-07  3407   0.564E-04    0.259E-03
RMM:  17    -0.778391383759E+03   -0.46593E-04   -0.75931E-07  4377   0.605E-04    0.226E-03
RMM:  18    -0.778391417033E+03   -0.33274E-04   -0.37219E-07  3088   0.538E-04    0.194E-03
RMM:  19    -0.778391441666E+03   -0.24633E-04   -0.33820E-07  2965   0.525E-04    0.170E-03
RMM:  20    -0.778391496288E+03   -0.54622E-04   -0.84423E-07  4130   0.594E-04    0.172E-03
RMM:  21    -0.778391540396E+03   -0.44108E-04   -0.69077E-07  3788   0.568E-04    0.156E-03
RMM:  22    -0.778391595718E+03   -0.55322E-04   -0.12000E-06  4661   0.638E-04    0.133E-03
RMM:  23    -0.778391626643E+03   -0.30925E-04   -0.66304E-07  4166   0.593E-04    0.114E-03
RMM:  24    -0.778391661483E+03   -0.34840E-04   -0.84569E-07  4808   0.647E-04    0.975E-04
RMM:  25    -0.778391690657E+03   -0.29174E-04   -0.68927E-07  4739   0.639E-04    0.762E-04
RMM:  26    -0.778391714335E+03   -0.23678E-04   -0.53525E-07  4443   0.630E-04    0.709E-04
RMM:  27    -0.778391730665E+03   -0.16330E-04   -0.33025E-07  3760   0.566E-04    0.408E-04
RMM:  28    -0.778391747061E+03   -0.16396E-04   -0.33734E-07  4162   0.590E-04    0.324E-04
RMM:  29    -0.778391753751E+03   -0.66900E-05   -0.17908E-07  3315   0.520E-04
   6 F= -.77839175E+03 E0= -.77851279E+03  d E =-.398397E+01  mag=    62.9016
       N       E                     dE             d eps       ncg     rms          rms(c)
DAV:   1    -0.778375591486E+03    0.16156E-01   -0.36565E+01 20380   0.114E+01    0.109E+00
RMM:   2    -0.779383514286E+03   -0.10079E+01   -0.94372E+00 17215   0.220E+00    0.358E+00
RMM:   3    -0.778928034352E+03    0.45548E+00   -0.23313E-01 18972   0.436E-01    0.215E+00
RMM:   4    -0.778865175760E+03    0.62859E-01   -0.27082E-02 16490   0.108E-01    0.545E-01
RMM:   5    -0.778862495491E+03    0.26803E-02   -0.45431E-03 15811   0.440E-02    0.584E-01
RMM:   6    -0.778861280076E+03    0.12154E-02   -0.39181E-03 15000   0.343E-02    0.590E-01
RMM:   7    -0.778859011199E+03    0.22689E-02   -0.24267E-03 14997   0.278E-02    0.312E-01
RMM:   8    -0.778858452881E+03    0.55832E-03   -0.36114E-03 15118   0.291E-02    0.225E-01
RMM:   9    -0.778858283940E+03    0.16894E-03   -0.13495E-03 15060   0.202E-02    0.146E-01
RMM:  10    -0.778858500926E+03   -0.21699E-03   -0.52113E-04 14759   0.129E-02    0.148E-01
RMM:  11    -0.778858669846E+03   -0.16892E-03   -0.18524E-04 14226   0.853E-03    0.167E-01
RMM:  12    -0.778858726169E+03   -0.56322E-04   -0.13264E-04 13620   0.765E-03    0.728E-02
RMM:  13    -0.778858817833E+03   -0.91664E-04   -0.60209E-05 12326   0.529E-03    0.361E-02
RMM:  14    -0.778858926674E+03   -0.10884E-03   -0.24407E-05 10586   0.336E-03    0.212E-02
RMM:  15    -0.778858979807E+03   -0.53133E-04   -0.96302E-06  8997   0.217E-03    0.180E-02
RMM:  16    -0.778859042946E+03   -0.63139E-04   -0.15406E-05  9141   0.205E-03    0.145E-02
RMM:  17    -0.778859051372E+03   -0.84261E-05   -0.44488E-06  8023   0.128E-03
   7 F= -.77885905E+03 E0= -.77897587E+03  d E =-.467298E+00  mag=    62.9463
       N       E                     dE             d eps       ncg     rms          rms(c)
DAV:   1    -0.775649947007E+03    0.32091E+01   -0.32768E+02 20476   0.343E+01    0.348E+00
RMM:   2    -0.785807578699E+03   -0.10158E+02   -0.88421E+01 17101   0.699E+00    0.145E+01
RMM:   3    -0.780760142949E+03    0.50474E+01   -0.22093E+00 18736   0.137E+00    0.556E+00
RMM:   4    -0.780310943056E+03    0.44920E+00   -0.38006E-01 16698   0.431E-01    0.219E+00
RMM:   5    -0.780258756658E+03    0.52186E-01   -0.79276E-02 16479   0.173E-01    0.185E+00
RMM:   6    -0.780246989881E+03    0.11767E-01   -0.37226E-02 16469   0.111E-01    0.955E-01
RMM:   7    -0.780244245687E+03    0.27442E-02   -0.39637E-02 16545   0.105E-01    0.125E+00
RMM:   8    -0.780238612595E+03    0.56331E-02   -0.13043E-02 16044   0.626E-02    0.114E+00
RMM:   9    -0.780232756006E+03    0.58566E-02   -0.10363E-02 16116   0.576E-02    0.631E-01
RMM:  10    -0.780231783748E+03    0.97226E-03   -0.74176E-03 16088   0.487E-02    0.428E-01
RMM:  11    -0.780232122470E+03   -0.33872E-03   -0.34602E-03 15651   0.350E-02    0.340E-01
RMM:  12    -0.780232933956E+03   -0.81149E-03   -0.12968E-03 15082   0.226E-02    0.429E-01
RMM:  13    -0.780232763753E+03    0.17020E-03   -0.74599E-04 14880   0.173E-02    0.175E-01
RMM:  14    -0.780233282128E+03   -0.51838E-03   -0.38819E-04 14707   0.136E-02    0.592E-02
RMM:  15    -0.780233848405E+03   -0.56628E-03   -0.18412E-04 13820   0.794E-03    0.773E-02
RMM:  16    -0.780233899266E+03   -0.50862E-04   -0.11481E-04 13221   0.578E-03    0.542E-02
RMM:  17    -0.780233912946E+03   -0.13680E-04   -0.37738E-05 11103   0.364E-03    0.485E-02
RMM:  18    -0.780233621187E+03    0.29176E-03   -0.43282E-05 11243   0.356E-03    0.387E-02
RMM:  19    -0.780233297498E+03    0.32369E-03   -0.20798E-05  9610   0.304E-03    0.287E-02
RMM:  20    -0.780232773144E+03    0.52435E-03   -0.15338E-05  9910   0.275E-03    0.304E-02
RMM:  21    -0.780232243159E+03    0.52999E-03   -0.94329E-06  9131   0.219E-03    0.202E-02
RMM:  22    -0.780231624851E+03    0.61831E-03   -0.17667E-05 10037   0.231E-03    0.199E-02
RMM:  23    -0.780231342366E+03    0.28248E-03   -0.94747E-06  9372   0.172E-03    0.131E-02
RMM:  24    -0.780231348968E+03   -0.66019E-05   -0.61116E-06  8773   0.129E-03
   8 F= -.78023135E+03 E0= -.78033517E+03  d E =-.183960E+01  mag=    63.1938
       N       E                     dE             d eps       ncg     rms          rms(c)
DAV:   1    -0.761973645498E+03    0.18258E+02   -0.12989E+03 20418   0.689E+01    0.776E+00
RMM:   2    -0.810154723607E+03   -0.48181E+02   -0.37935E+02 17057   0.148E+01    0.308E+01
RMM:   3    -0.785372347853E+03    0.24782E+02   -0.10694E+01 18487   0.307E+00    0.135E+01
RMM:   4    -0.783178948484E+03    0.21934E+01   -0.25289E+00 16640   0.114E+00    0.658E+00
RMM:   5    -0.783026009641E+03    0.15294E+00   -0.58327E-01 16498   0.468E-01    0.829E+00
RMM:   6    -0.782897481947E+03    0.12853E+00   -0.17628E-01 16474   0.279E-01    0.440E+00
RMM:   7    -0.782921421377E+03   -0.23939E-01   -0.18053E-01 16448   0.233E-01    0.211E+00
RMM:   8    -0.782928764176E+03   -0.73428E-02   -0.11332E-01 16652   0.178E-01    0.223E+00
RMM:   9    -0.782918893170E+03    0.98710E-02   -0.80926E-02 16683   0.152E-01    0.261E+00
RMM:  10    -0.782895548109E+03    0.23345E-01   -0.26812E-02 17092   0.952E-02    0.164E+00
RMM:  11    -0.782875586937E+03    0.19961E-01   -0.42328E-02 16625   0.113E-01    0.821E-01
RMM:  12    -0.782870153500E+03    0.54334E-02   -0.16974E-02 16618   0.761E-02    0.519E-01
RMM:  13    -0.782873163943E+03   -0.30104E-02   -0.70296E-03 16221   0.504E-02    0.507E-01
RMM:  14    -0.782875342946E+03   -0.21790E-02   -0.28018E-03 16420   0.343E-02    0.412E-01
RMM:  15    -0.782875893869E+03   -0.55092E-03   -0.14078E-03 15521   0.245E-02    0.286E-01
RMM:  16    -0.782876606565E+03   -0.71270E-03   -0.75582E-04 15100   0.175E-02    0.170E-01
RMM:  17    -0.782876805451E+03   -0.19889E-03   -0.19035E-04 14301   0.902E-03    0.115E-01
RMM:  18    -0.782877291473E+03   -0.48602E-03   -0.14535E-04 13675   0.696E-03    0.102E-01
RMM:  19    -0.782877407452E+03   -0.11598E-03   -0.11953E-04 13465   0.552E-03    0.971E-02
RMM:  20    -0.782876894457E+03    0.51300E-03   -0.13187E-04 13063   0.533E-03    0.776E-02
RMM:  21    -0.782876539152E+03    0.35530E-03   -0.43511E-05 11736   0.381E-03    0.608E-02
RMM:  22    -0.782875869320E+03    0.66983E-03   -0.36208E-05 11984   0.396E-03    0.490E-02
RMM:  23    -0.782875003794E+03    0.86553E-03   -0.32660E-05 12137   0.403E-03    0.410E-02
RMM:  24    -0.782873537091E+03    0.14667E-02   -0.35885E-05 12556   0.381E-03    0.414E-02
RMM:  25    -0.782872405125E+03    0.11320E-02   -0.17987E-05 10054   0.291E-03    0.245E-02
RMM:  26    -0.782872149983E+03    0.25514E-03   -0.11265E-05  9375   0.218E-03    0.282E-02
RMM:  27    -0.782872087919E+03    0.62064E-04   -0.24583E-05 10151   0.238E-03    0.177E-02
RMM:  28    -0.782872467178E+03   -0.37926E-03   -0.14602E-05  9648   0.177E-03    0.157E-02
RMM:  29    -0.782873241488E+03   -0.77431E-03   -0.28799E-05 10030   0.204E-03    0.144E-02
RMM:  30    -0.782874073824E+03   -0.83234E-03   -0.27669E-05 10261   0.188E-03    0.132E-02
RMM:  31    -0.782875591939E+03   -0.15181E-02   -0.70884E-05 11020   0.246E-03    0.103E-02
RMM:  32    -0.782876451989E+03   -0.86005E-03   -0.32545E-05  9835   0.170E-03    0.800E-03
RMM:  33    -0.782877386097E+03   -0.93411E-03   -0.14673E-05  9121   0.130E-03    0.540E-03
RMM:  34    -0.782878377417E+03   -0.99132E-03   -0.85958E-06  7014   0.103E-03    0.516E-03
RMM:  35    -0.782879380985E+03   -0.10036E-02   -0.58973E-06  6892   0.935E-04    0.530E-03
RMM:  36    -0.782880398383E+03   -0.10174E-02   -0.69945E-06  7576   0.102E-03    0.386E-03
RMM:  37    -0.782881221849E+03   -0.82347E-03   -0.81518E-06  7761   0.102E-03    0.309E-03
RMM:  38    -0.782881596107E+03   -0.37426E-03   -0.45413E-06  5853   0.805E-04    0.236E-03
RMM:  39    -0.782881920270E+03   -0.32416E-03   -0.49424E-06  7452   0.103E-03    0.135E-03
RMM:  40    -0.782882102436E+03   -0.18217E-03   -0.34226E-06  6756   0.923E-04    0.103E-03
RMM:  41    -0.782882172759E+03   -0.70323E-04   -0.10636E-06  5232   0.699E-04    0.939E-04
RMM:  42    -0.782882198117E+03   -0.25358E-04   -0.35497E-07  4192   0.613E-04    0.646E-04
RMM:  43    -0.782882209754E+03   -0.11636E-04   -0.19335E-07  3297   0.531E-04    0.445E-04
RMM:  44    -0.782882215120E+03   -0.53666E-05   -0.82634E-08  2726   0.479E-04
   9 F= -.78288222E+03 E0= -.78296291E+03  d E =-.449046E+01  mag=    63.7825
       N       E                     dE             d eps       ncg     rms          rms(c)
DAV:   1    -0.681824839254E+03    0.10106E+03   -0.51807E+03 20390   0.140E+02    0.202E+01
RMM:   2    -0.942141851789E+03   -0.26032E+03   -0.17490E+03 17893   0.296E+01    0.511E+01
RMM:   3    -0.802031979436E+03    0.14011E+03   -0.81855E+01 16736   0.709E+00    0.403E+01
RMM:   4    -0.786996769906E+03    0.15035E+02   -0.17068E+01 16571   0.312E+00    0.139E+01
RMM:   5    -0.789441649244E+03   -0.24449E+01   -0.44924E+00 16459   0.141E+00    0.225E+01
RMM:   6    -0.787949770226E+03    0.14919E+01   -0.19523E+00 16467   0.899E-01    0.956E+00
RMM:   7    -0.787500928980E+03    0.44884E+00   -0.86514E-01 16543   0.577E-01    0.549E+00
RMM:   8    -0.787581450453E+03   -0.80521E-01   -0.37748E-01 16774   0.340E-01    0.664E+00
RMM:   9    -0.787481240542E+03    0.10021E+00   -0.12168E-01 17016   0.222E-01    0.436E+00
RMM:  10    -0.787457890962E+03    0.23350E-01   -0.48458E-02 16758   0.151E-01    0.384E+00
RMM:  11    -0.787458904428E+03   -0.10135E-02   -0.15682E-01 16544   0.259E-01    0.375E+00
RMM:  12    -0.787397786388E+03    0.61118E-01   -0.24723E-01 16478   0.275E-01    0.264E+00
RMM:  13    -0.787365615846E+03    0.32171E-01   -0.68999E-02 16684   0.150E-01    0.168E+00
RMM:  14    -0.787363110902E+03    0.25049E-02   -0.26255E-02 16715   0.102E-01    0.130E+00
RMM:  15    -0.787378423728E+03   -0.15313E-01   -0.18035E-02 16574   0.850E-02    0.148E+00
RMM:  16    -0.787379468556E+03   -0.10448E-02   -0.27063E-02 16502   0.101E-01    0.893E-01
RMM:  17    -0.787377590948E+03    0.18776E-02   -0.10974E-02 16563   0.637E-02    0.480E-01
RMM:  18    -0.787378590734E+03   -0.99979E-03   -0.32380E-03 16350   0.358E-02    0.259E-01
RMM:  19    -0.787379550851E+03   -0.96012E-03   -0.11392E-03 15152   0.208E-02    0.233E-01
RMM:  20    -0.787380968647E+03   -0.14178E-02   -0.65332E-04 14977   0.155E-02    0.242E-01
RMM:  21    -0.787381768084E+03   -0.79944E-03   -0.53529E-04 14785   0.126E-02    0.195E-01
RMM:  22    -0.787382136793E+03   -0.36871E-03   -0.21098E-04 13733   0.747E-03    0.174E-01
RMM:  23    -0.787382400074E+03   -0.26328E-03   -0.13135E-04 13651   0.605E-03    0.161E-01
RMM:  24    -0.787381934407E+03    0.46567E-03   -0.11500E-04 13323   0.563E-03    0.991E-02
RMM:  25    -0.787380123791E+03    0.18106E-02   -0.13562E-04 13752   0.676E-03    0.894E-02
RMM:  26    -0.787378250903E+03    0.18729E-02   -0.97645E-05 13693   0.626E-03    0.657E-02
RMM:  27    -0.787376903196E+03    0.13477E-02   -0.88986E-05 13642   0.564E-03    0.533E-02
RMM:  28    -0.787375773563E+03    0.11296E-02   -0.52740E-05 12058   0.428E-03    0.450E-02
RMM:  29    -0.787374881322E+03    0.89224E-03   -0.43227E-05 11266   0.360E-03    0.350E-02
RMM:  30    -0.787374888711E+03   -0.73891E-05   -0.35904E-05 10875   0.324E-03
  10 F= -.78737489E+03 E0= -.78745863E+03  d E =-.898313E+01  mag=    64.5322
       N       E                     dE             d eps       ncg     rms          rms(c)
DAV:   1    -0.310910359539E+03    0.47646E+03   -0.23067E+04 20908   0.285E+02    0.657E+01
RMM:   2    -0.292969410787E+04   -0.26188E+04   -0.87679E+03 21323   0.651E+01    0.119E+02
RMM:   3    -0.991219524159E+03    0.19385E+04   -0.71818E+02 16597   0.191E+01    0.621E+01
RMM:   4    -0.830033336817E+03    0.16119E+03   -0.13050E+02 17105   0.835E+00    0.575E+01
RMM:   5    -0.800393026913E+03    0.29640E+02   -0.33156E+01 17003   0.407E+00    0.327E+01
RMM:   6    -0.776773079004E+03    0.23620E+02   -0.18160E+01 16537   0.272E+00    0.265E+01
RMM:   7    -0.776314088501E+03    0.45899E+00   -0.55546E+00 16669   0.154E+00    0.176E+01
RMM:   8    -0.780888862485E+03   -0.45748E+01   -0.21775E+00 16512   0.104E+00    0.194E+01
RMM:   9    -0.778830586965E+03    0.20583E+01   -0.19098E+00 16545   0.931E-01    0.118E+01
RMM:  10    -0.782499378520E+03   -0.36688E+01   -0.13565E+00 16464   0.766E-01    0.126E+01
RMM:  11    -0.783096715651E+03   -0.59734E+00   -0.11067E+00 16462   0.638E-01    0.108E+01
RMM:  12    -0.784091944515E+03   -0.99523E+00   -0.67555E-01 16606   0.510E-01    0.894E+00
RMM:  13    -0.785420562548E+03   -0.13286E+01   -0.67802E-01 16454   0.479E-01    0.712E+00
RMM:  14    -0.786631608416E+03   -0.12110E+01   -0.47352E-01 16448   0.367E-01    0.621E+00
RMM:  15    -0.787609298493E+03   -0.97769E+00   -0.34105E-01 16482   0.300E-01    0.590E+00
RMM:  16    -0.788255993219E+03   -0.64669E+00   -0.33266E-01 16485   0.282E-01    0.499E+00
RMM:  17    -0.788572403224E+03   -0.31641E+00   -0.26604E-01 16557   0.269E-01    0.372E+00
RMM:  18    -0.788790663334E+03   -0.21826E+00   -0.12608E-01 16553   0.201E-01    0.291E+00
RMM:  19    -0.788864835675E+03   -0.74172E-01   -0.59922E-02 16737   0.137E-01    0.267E+00
RMM:  20    -0.788832352480E+03    0.32483E-01   -0.10924E-01 16447   0.191E-01    0.220E+00
RMM:  21    -0.788751076600E+03    0.81276E-01   -0.47064E-02 16688   0.127E-01    0.146E+00
RMM:  22    -0.788750179222E+03    0.89738E-03   -0.34240E-02 16636   0.106E-01    0.113E+00
RMM:  23    -0.788715671798E+03    0.34507E-01   -0.12650E-02 16669   0.721E-02    0.954E-01
RMM:  24    -0.788695006968E+03    0.20665E-01   -0.66545E-03 16480   0.570E-02    0.920E-01
RMM:  25    -0.788702544476E+03   -0.75375E-02   -0.38423E-03 16466   0.434E-02    0.888E-01
RMM:  26    -0.788764849937E+03   -0.62305E-01   -0.88456E-03 16099   0.437E-02    0.673E-01
RMM:  27    -0.788816511556E+03   -0.51662E-01   -0.87166E-03 16457   0.425E-02    0.579E-01
RMM:  28    -0.788845525113E+03   -0.29014E-01   -0.71632E-03 16273   0.404E-02    0.495E-01
RMM:  29    -0.788865464015E+03   -0.19939E-01   -0.49797E-03 16567   0.350E-02    0.466E-01
RMM:  30    -0.788887802524E+03   -0.22339E-01   -0.32041E-03 16513   0.260E-02    0.362E-01
RMM:  31    -0.788918148456E+03   -0.30346E-01   -0.29402E-03 16240   0.242E-02    0.225E-01
RMM:  32    -0.788939724720E+03   -0.21576E-01   -0.10667E-03 15965   0.153E-02    0.187E-01
RMM:  33    -0.788975903199E+03   -0.36178E-01   -0.80955E-04 15280   0.150E-02    0.173E-01
RMM:  34    -0.789005881479E+03   -0.29978E-01   -0.65751E-04 14961   0.131E-02    0.158E-01
RMM:  35    -0.789043089357E+03   -0.37208E-01   -0.56368E-04 14502   0.117E-02    0.137E-01
RMM:  36    -0.789083133675E+03   -0.40044E-01   -0.72672E-04 14314   0.118E-02    0.107E-01
RMM:  37    -0.789114289151E+03   -0.31155E-01   -0.56419E-04 13977   0.992E-03    0.854E-02
RMM:  38    -0.789139375474E+03   -0.25086E-01   -0.38055E-04 14037   0.743E-03    0.677E-02
RMM:  39    -0.789168383908E+03   -0.29008E-01   -0.37090E-04 13968   0.736E-03    0.433E-02
RMM:  40    -0.789188826696E+03   -0.20443E-01   -0.24101E-04 13265   0.564E-03    0.430E-02
RMM:  41    -0.789199437687E+03   -0.10611E-01   -0.13713E-04 11915   0.417E-03    0.319E-02
RMM:  42    -0.789205956157E+03   -0.65185E-02   -0.11766E-04 11364   0.349E-03    0.167E-02
RMM:  43    -0.789207883550E+03   -0.19274E-02   -0.58523E-05 10756   0.241E-03    0.112E-02
RMM:  44    -0.789208624809E+03   -0.74126E-03   -0.28559E-05  9885   0.179E-03    0.856E-03
RMM:  45    -0.789209009754E+03   -0.38495E-03   -0.17025E-05  9574   0.130E-03    0.638E-03
RMM:  46    -0.789209314100E+03   -0.30435E-03   -0.15259E-05  8664   0.119E-03    0.511E-03
RMM:  47    -0.789209489104E+03   -0.17500E-03   -0.11403E-05  8929   0.119E-03    0.307E-03
RMM:  48    -0.789209566422E+03   -0.77318E-04   -0.53719E-06  7009   0.910E-04    0.208E-03
RMM:  49    -0.789209601638E+03   -0.35216E-04   -0.32423E-06  6813   0.836E-04    0.136E-03
RMM:  50    -0.789209611424E+03   -0.97860E-05   -0.18698E-06  5985   0.736E-04
  11 F= -.78920961E+03 E0= -.78950676E+03  d E =-.108179E+02  mag=    67.7175
       N       E                     dE             d eps       ncg     rms          rms(c)
DAV:   1    -0.686580901429E+03    0.10263E+03   -0.45108E+03 20946   0.145E+02    0.148E+01
RMM:   2    -0.813877420736E+03   -0.12730E+03   -0.13027E+03 19172   0.322E+01    0.166E+01
RMM:   3    -0.807353190725E+03    0.65242E+01   -0.41812E+01 17099   0.538E+00    0.403E+01
RMM:   4    -0.792974345780E+03    0.14379E+02   -0.77867E+00 16714   0.208E+00    0.168E+01
RMM:   5    -0.789967386791E+03    0.30070E+01   -0.19620E+00 16461   0.106E+00    0.852E+00
RMM:   6    -0.790539630705E+03   -0.57224E+00   -0.10231E+00 16479   0.625E-01    0.101E+01
RMM:   7    -0.790089840060E+03    0.44979E+00   -0.33142E-01 16459   0.371E-01    0.524E+00
RMM:   8    -0.790159332838E+03   -0.69493E-01   -0.40546E-01 16521   0.393E-01    0.411E+00
RMM:   9    -0.790157605483E+03    0.17274E-02   -0.28274E-01 16576   0.320E-01    0.358E+00
RMM:  10    -0.790120927625E+03    0.36678E-01   -0.12246E-01 16725   0.227E-01    0.316E+00
RMM:  11    -0.790091699169E+03    0.29228E-01   -0.65604E-02 16673   0.161E-01    0.261E+00
RMM:  12    -0.790039949355E+03    0.51750E-01   -0.70505E-02 16509   0.162E-01    0.134E+00
RMM:  13    -0.790052667235E+03   -0.12718E-01   -0.24408E-02 16524   0.972E-02    0.108E+00
RMM:  14    -0.790063644903E+03   -0.10978E-01   -0.15809E-02 16456   0.819E-02    0.875E-01
RMM:  15    -0.790067234994E+03   -0.35901E-02   -0.10371E-02 16433   0.645E-02    0.495E-01
RMM:  16    -0.790066508274E+03    0.72672E-03   -0.29404E-03 16430   0.358E-02    0.269E-01
RMM:  17    -0.790067891992E+03   -0.13837E-02   -0.16189E-03 16199   0.258E-02    0.275E-01
RMM:  18    -0.790069570271E+03   -0.16783E-02   -0.91341E-04 15432   0.194E-02    0.209E-01
RMM:  19    -0.790074129439E+03   -0.45592E-02   -0.87686E-04 14768   0.143E-02    0.146E-01
RMM:  20    -0.790076549130E+03   -0.24197E-02   -0.39252E-04 14032   0.930E-03    0.138E-01
RMM:  21    -0.790079394910E+03   -0.28458E-02   -0.54152E-04 13808   0.886E-03    0.126E-01
RMM:  22    -0.790079753585E+03   -0.35867E-03   -0.47332E-04 13683   0.816E-03    0.117E-01
RMM:  23    -0.790076621955E+03    0.31316E-02   -0.48389E-04 13748   0.981E-03    0.967E-02
RMM:  24    -0.790075453247E+03    0.11687E-02   -0.22335E-04 13733   0.800E-03    0.669E-02
RMM:  25    -0.790078694503E+03   -0.32413E-02   -0.15437E-04 13643   0.685E-03    0.548E-02
RMM:  26    -0.790081864561E+03   -0.31701E-02   -0.14099E-04 13453   0.634E-03    0.449E-02
RMM:  27    -0.790085993289E+03   -0.41287E-02   -0.11912E-04 12923   0.518E-03    0.346E-02
RMM:  28    -0.790088901852E+03   -0.29086E-02   -0.77136E-05 11560   0.394E-03    0.320E-02
RMM:  29    -0.790091906621E+03   -0.30048E-02   -0.56870E-05 11196   0.308E-03    0.287E-02
RMM:  30    -0.790095749715E+03   -0.38431E-02   -0.98604E-05 11594   0.360E-03    0.217E-02
RMM:  31    -0.790099722206E+03   -0.39725E-02   -0.11920E-04 11512   0.358E-03    0.180E-02
RMM:  32    -0.790103121878E+03   -0.33997E-02   -0.12609E-04 11459   0.322E-03    0.137E-02
RMM:  33    -0.790105659702E+03   -0.25378E-02   -0.71673E-05 11231   0.284E-03    0.111E-02
RMM:  34    -0.790107724442E+03   -0.20647E-02   -0.27267E-05 10606   0.188E-03    0.831E-03
RMM:  35    -0.790110865535E+03   -0.31411E-02   -0.16146E-05  9228   0.156E-03    0.789E-03
RMM:  36    -0.790113081172E+03   -0.22156E-02   -0.14374E-05  9521   0.160E-03    0.728E-03
RMM:  37    -0.790114662012E+03   -0.15808E-02   -0.13045E-05  9640   0.159E-03    0.355E-03
RMM:  38    -0.790115299269E+03   -0.63726E-03   -0.60868E-06  8415   0.135E-03    0.282E-03
RMM:  39    -0.790115534482E+03   -0.23521E-03   -0.26132E-06  6960   0.106E-03    0.194E-03
RMM:  40    -0.790115626425E+03   -0.91943E-04   -0.14045E-06  6608   0.975E-04    0.113E-03
RMM:  41    -0.790115662462E+03   -0.36037E-04   -0.91401E-07  6233   0.835E-04    0.808E-04
RMM:  42    -0.790115673676E+03   -0.11214E-04   -0.55126E-07  4557   0.659E-04    0.640E-04
RMM:  43    -0.790115684066E+03   -0.10390E-04   -0.42102E-07  3938   0.579E-04    0.503E-04
RMM:  44    -0.790115695668E+03   -0.11602E-04   -0.39709E-07  3864   0.557E-04    0.392E-04
RMM:  45    -0.790115703978E+03   -0.83099E-05   -0.25651E-07  3563   0.545E-04
  12 F= -.79011570E+03 E0= -.79033075E+03  d E =-.117240E+02  mag=    66.0299
       N       E                     dE             d eps       ncg     rms          rms(c)
DAV:   1    -0.785865665531E+03    0.42500E+01   -0.32424E+02 20936   0.367E+01    0.358E+00
RMM:   2    -0.795484133684E+03   -0.96185E+01   -0.82137E+01 17129   0.741E+00    0.134E+01
RMM:   3    -0.790743001678E+03    0.47411E+01   -0.22169E+00 18744   0.144E+00    0.494E+00
RMM:   4    -0.790289990255E+03    0.45301E+00   -0.33663E-01 17046   0.433E-01    0.167E+00
RMM:   5    -0.790291444262E+03   -0.14540E-02   -0.50979E-02 16796   0.150E-01    0.203E+00
RMM:   6    -0.790284003803E+03    0.74405E-02   -0.24367E-02 16521   0.997E-02    0.138E+00
RMM:   7    -0.790283825270E+03    0.17853E-03   -0.31679E-02 16449   0.105E-01    0.117E+00
RMM:   8    -0.790277140318E+03    0.66850E-02   -0.31963E-02 16593   0.998E-02    0.735E-01
RMM:   9    -0.790275238649E+03    0.19017E-02   -0.90768E-03 16494   0.585E-02    0.401E-01
RMM:  10    -0.790276725307E+03   -0.14867E-02   -0.45190E-03 15461   0.411E-02    0.306E-01
RMM:  11    -0.790277052473E+03   -0.32717E-03   -0.13689E-03 15744   0.249E-02    0.262E-01
RMM:  12    -0.790277046235E+03    0.62379E-05   -0.57406E-04 15091   0.160E-02    0.210E-01
RMM:  13    -0.790276837774E+03    0.20846E-03   -0.38058E-04 14934   0.130E-02    0.120E-01
RMM:  14    -0.790276436507E+03    0.40127E-03   -0.16360E-04 13822   0.846E-03    0.537E-02
RMM:  15    -0.790275839087E+03    0.59742E-03   -0.60629E-05 13088   0.515E-03    0.566E-02
RMM:  16    -0.790275421018E+03    0.41807E-03   -0.29719E-05 10929   0.368E-03    0.493E-02
RMM:  17    -0.790274380135E+03    0.10409E-02   -0.51135E-05 12745   0.434E-03    0.490E-02
RMM:  18    -0.790273174380E+03    0.12058E-02   -0.44290E-05 12132   0.382E-03    0.306E-02
RMM:  19    -0.790272454420E+03    0.71996E-03   -0.39501E-05 11097   0.349E-03    0.321E-02
RMM:  20    -0.790271473513E+03    0.98091E-03   -0.40232E-05 10981   0.324E-03    0.203E-02
RMM:  21    -0.790271447610E+03    0.25902E-04   -0.30720E-05 10189   0.262E-03    0.194E-02
RMM:  22    -0.790271676742E+03   -0.22913E-03   -0.32696E-05  9985   0.222E-03    0.134E-02
RMM:  23    -0.790272224231E+03   -0.54749E-03   -0.24191E-05  9934   0.180E-03    0.119E-02
RMM:  24    -0.790273047125E+03   -0.82289E-03   -0.32131E-05 10151   0.197E-03    0.104E-02
RMM:  25    -0.790274111254E+03   -0.10641E-02   -0.42475E-05 10723   0.196E-03    0.926E-03
RMM:  26    -0.790274976285E+03   -0.86503E-03   -0.28724E-05  9204   0.159E-03    0.647E-03
RMM:  27    -0.790275922251E+03   -0.94597E-03   -0.13642E-05  8859   0.124E-03    0.571E-03
RMM:  28    -0.790276715087E+03   -0.79284E-03   -0.10601E-05  7734   0.106E-03    0.444E-03
RMM:  29    -0.790277677767E+03   -0.96268E-03   -0.88707E-06  7626   0.101E-03    0.433E-03
RMM:  30    -0.790278475827E+03   -0.79806E-03   -0.71699E-06  7671   0.988E-04    0.296E-03
RMM:  31    -0.790279381544E+03   -0.90572E-03   -0.12135E-05  8781   0.121E-03    0.174E-03
RMM:  32    -0.790279706687E+03   -0.32514E-03   -0.40448E-06  6662   0.931E-04    0.139E-03
RMM:  33    -0.790279896133E+03   -0.18945E-03   -0.20897E-06  6194   0.835E-04    0.124E-03
RMM:  34    -0.790280030762E+03   -0.13463E-03   -0.17021E-06  6573   0.891E-04    0.978E-04
RMM:  35    -0.790280095279E+03   -0.64516E-04   -0.11720E-06  6421   0.905E-04    0.591E-04
RMM:  36    -0.790280110534E+03   -0.15255E-04   -0.40025E-07  4311   0.639E-04    0.355E-04
RMM:  37    -0.790280116721E+03   -0.61869E-05   -0.23269E-07  4213   0.614E-04
  13 F= -.79028012E+03 E0= -.79053091E+03  d E =-.118884E+02  mag=    66.4718
       N       E                     dE             d eps       ncg     rms          rms(c)
DAV:   1    -0.772510416913E+03    0.17770E+02   -0.13556E+03 21054   0.792E+01    0.659E+00
RMM:   2    -0.803065551680E+03   -0.30555E+02   -0.30789E+02 17200   0.155E+01    0.985E+00
RMM:   3    -0.795548140796E+03    0.75174E+01   -0.84677E+00 19169   0.283E+00    0.161E+01
RMM:   4    -0.791892509343E+03    0.36556E+01   -0.12733E+00 17710   0.846E-01    0.460E+00
RMM:   5    -0.791885517393E+03    0.69919E-02   -0.25601E-01 16641   0.381E-01    0.249E+00
RMM:   6    -0.791860497085E+03    0.25020E-01   -0.10166E-01 16970   0.184E-01    0.169E+00
RMM:   7    -0.791880957552E+03   -0.20460E-01   -0.75821E-02 16474   0.177E-01    0.124E+00
RMM:   8    -0.791879583791E+03    0.13738E-02   -0.36293E-02 16723   0.118E-01    0.152E+00
RMM:   9    -0.791866937610E+03    0.12646E-01   -0.15626E-02 16955   0.789E-02    0.773E-01
RMM:  10    -0.791865922241E+03    0.10154E-02   -0.10575E-02 16670   0.667E-02    0.666E-01
RMM:  11    -0.791864482145E+03    0.14401E-02   -0.64519E-03 16233   0.563E-02    0.360E-01
RMM:  12    -0.791867764608E+03   -0.32825E-02   -0.27276E-03 16217   0.327E-02    0.248E-01
RMM:  13    -0.791869177076E+03   -0.14125E-02   -0.96813E-04 15192   0.205E-02    0.162E-01
RMM:  14    -0.791871248122E+03   -0.20710E-02   -0.41746E-04 15060   0.134E-02    0.156E-01
RMM:  15    -0.791872462799E+03   -0.12147E-02   -0.18960E-04 14485   0.915E-03    0.127E-01
RMM:  16    -0.791873731018E+03   -0.12682E-02   -0.12873E-04 13726   0.730E-03    0.545E-02
RMM:  17    -0.791875451467E+03   -0.17204E-02   -0.81127E-05 13260   0.560E-03    0.400E-02
RMM:  18    -0.791877697741E+03   -0.22463E-02   -0.75735E-05 12081   0.433E-03    0.355E-02
RMM:  19    -0.791879808890E+03   -0.21111E-02   -0.66795E-05 10764   0.372E-03    0.409E-02
RMM:  20    -0.791883411960E+03   -0.36031E-02   -0.13455E-04 11989   0.446E-03    0.329E-02
RMM:  21    -0.791886765631E+03   -0.33537E-02   -0.13142E-04 11232   0.401E-03    0.263E-02
RMM:  22    -0.791890092345E+03   -0.33267E-02   -0.13362E-04 11467   0.373E-03    0.126E-02
RMM:  23    -0.791892968802E+03   -0.28765E-02   -0.10278E-04 10984   0.316E-03    0.131E-02
RMM:  24    -0.791894849096E+03   -0.18803E-02   -0.56806E-05 10427   0.234E-03    0.812E-03
RMM:  25    -0.791896329424E+03   -0.14803E-02   -0.27334E-05  9723   0.172E-03    0.665E-03
RMM:  26    -0.791897460281E+03   -0.11309E-02   -0.17722E-05  9595   0.139E-03    0.437E-03
RMM:  27    -0.791898566655E+03   -0.11064E-02   -0.18532E-05  8771   0.129E-03    0.372E-03
RMM:  28    -0.791899156250E+03   -0.58960E-03   -0.11669E-05  8381   0.115E-03    0.264E-03
RMM:  29    -0.791899516136E+03   -0.35989E-03   -0.78988E-06  7909   0.108E-03    0.192E-03
RMM:  30    -0.791899626172E+03   -0.11004E-03   -0.25790E-06  6125   0.792E-04    0.866E-04
RMM:  31    -0.791899689568E+03   -0.63396E-04   -0.12523E-06  5751   0.737E-04    0.566E-04
RMM:  32    -0.791899711390E+03   -0.21822E-04   -0.45368E-07  3864   0.561E-04    0.441E-04
RMM:  33    -0.791899724504E+03   -0.13114E-04   -0.21450E-07  3604   0.550E-04    0.320E-04
RMM:  34    -0.791899733727E+03   -0.92230E-05   -0.12149E-07  3150   0.524E-04
  14 F= -.79189973E+03 E0= -.79214036E+03  d E =-.161962E+01  mag=    66.2471
       N       E                     dE             d eps       ncg     rms          rms(c)
DAV:   1    -0.516978592208E+03    0.27492E+03   -0.11966E+04 21376   0.242E+02    0.290E+01
RMM:   2    -0.101383316686E+04   -0.49685E+03   -0.36508E+03 18988   0.529E+01    0.607E+01
RMM:   3    -0.801813007240E+03    0.21202E+03   -0.17060E+02 16761   0.117E+01    0.268E+01
RMM:   4    -0.795218561903E+03    0.65944E+01   -0.24099E+01 16574   0.419E+00    0.332E+01
RMM:   5    -0.793898721946E+03    0.13198E+01   -0.58859E+00 16589   0.175E+00    0.238E+01
RMM:   6    -0.791315913638E+03    0.25828E+01   -0.26875E+00 16450   0.122E+00    0.155E+01
RMM:   7    -0.790998537897E+03    0.31738E+00   -0.12947E+00 16489   0.756E-01    0.111E+01
RMM:   8    -0.791675899494E+03   -0.67736E+00   -0.12856E+00 16523   0.638E-01    0.728E+00
RMM:   9    -0.791777514628E+03   -0.10162E+00   -0.48233E-01 16636   0.408E-01    0.492E+00
RMM:  10    -0.791944388815E+03   -0.16687E+00   -0.23242E-01 17040   0.314E-01    0.471E+00
RMM:  11    -0.792082397525E+03   -0.13801E+00   -0.36226E-01 16472   0.379E-01    0.388E+00
RMM:  12    -0.792082803861E+03   -0.40634E-03   -0.23157E-01 16627   0.276E-01    0.338E+00
RMM:  13    -0.792033480266E+03    0.49324E-01   -0.10304E-01 16788   0.204E-01    0.214E+00
RMM:  14    -0.792002633236E+03    0.30847E-01   -0.72759E-02 16596   0.174E-01    0.152E+00
RMM:  15    -0.792002675478E+03   -0.42242E-04   -0.30352E-02 16684   0.109E-01    0.140E+00
RMM:  16    -0.792017543734E+03   -0.14868E-01   -0.18107E-02 16567   0.896E-02    0.115E+00
RMM:  17    -0.792039175112E+03   -0.21631E-01   -0.12630E-02 16490   0.737E-02    0.666E-01
RMM:  18    -0.792048270215E+03   -0.90951E-02   -0.45124E-03 16534   0.460E-02    0.456E-01
RMM:  19    -0.792059806239E+03   -0.11536E-01   -0.20367E-03 16134   0.289E-02    0.278E-01
RMM:  20    -0.792070248936E+03   -0.10443E-01   -0.12199E-03 15329   0.212E-02    0.201E-01
RMM:  21    -0.792081084033E+03   -0.10835E-01   -0.57461E-04 14980   0.136E-02    0.149E-01
RMM:  22    -0.792097349589E+03   -0.16266E-01   -0.80311E-04 15039   0.152E-02    0.150E-01
RMM:  23    -0.792108915703E+03   -0.11566E-01   -0.41140E-04 14323   0.113E-02    0.108E-01
RMM:  24    -0.792123916654E+03   -0.15001E-01   -0.44653E-04 13713   0.908E-03    0.100E-01
RMM:  25    -0.792135906388E+03   -0.11990E-01   -0.42112E-04 13698   0.901E-03    0.111E-01
RMM:  26    -0.792155999642E+03   -0.20093E-01   -0.61775E-04 13695   0.954E-03    0.711E-02
RMM:  27    -0.792168596377E+03   -0.12597E-01   -0.52402E-04 13762   0.835E-03    0.802E-02
RMM:  28    -0.792180441944E+03   -0.11846E-01   -0.51684E-04 13547   0.750E-03    0.426E-02
RMM:  29    -0.792186877325E+03   -0.64354E-02   -0.27418E-04 13064   0.533E-03    0.274E-02
RMM:  30    -0.792192553667E+03   -0.56763E-02   -0.19131E-04 12441   0.467E-03    0.210E-02
RMM:  31    -0.792195404399E+03   -0.28507E-02   -0.66497E-05 11255   0.283E-03    0.159E-02
RMM:  32    -0.792198082676E+03   -0.26783E-02   -0.77474E-05 11179   0.305E-03    0.126E-02
RMM:  33    -0.792198854644E+03   -0.77197E-03   -0.67210E-05 10953   0.254E-03    0.121E-02
RMM:  34    -0.792199201357E+03   -0.34671E-03   -0.33755E-05  9882   0.176E-03    0.835E-03
RMM:  35    -0.792199512616E+03   -0.31126E-03   -0.17008E-05  8930   0.127E-03    0.589E-03
RMM:  36    -0.792199838956E+03   -0.32634E-03   -0.78770E-06  6993   0.975E-04    0.570E-03
RMM:  37    -0.792200282703E+03   -0.44375E-03   -0.73906E-06  7402   0.972E-04    0.470E-03
RMM:  38    -0.792200683444E+03   -0.40074E-03   -0.48868E-06  6787   0.844E-04    0.383E-03
RMM:  39    -0.792201370281E+03   -0.68684E-03   -0.93274E-06  7440   0.992E-04    0.309E-03
RMM:  40    -0.792201905103E+03   -0.53482E-03   -0.60276E-06  7203   0.957E-04    0.270E-03
RMM:  41    -0.792202298467E+03   -0.39336E-03   -0.47534E-06  8154   0.103E-03    0.218E-03
RMM:  42    -0.792202467794E+03   -0.16933E-03   -0.21424E-06  6671   0.953E-04    0.166E-03
RMM:  43    -0.792202531724E+03   -0.63930E-04   -0.10422E-06  6505   0.905E-04    0.114E-03
RMM:  44    -0.792202550804E+03   -0.19080E-04   -0.44886E-07  5066   0.707E-04    0.880E-04
RMM:  45    -0.792202558596E+03   -0.77920E-05   -0.36905E-07  5382   0.718E-04
  15 F= -.79220256E+03 E0= -.79241776E+03  d E =-.192244E+01  mag=    65.7501
       N       E                     dE             d eps       ncg     rms          rms(c)
DAV:   1    -0.706432800569E+03    0.85770E+02   -0.48486E+03 21384   0.154E+02    0.137E+01
RMM:   2    -0.850615553609E+03   -0.14418E+03   -0.13127E+03 17418   0.314E+01    0.364E+01
RMM:   3    -0.798650804895E+03    0.51965E+02   -0.35886E+01 18891   0.617E+00    0.207E+01
RMM:   4    -0.792391285247E+03    0.62595E+01   -0.72619E+00 16681   0.218E+00    0.781E+00
RMM:   5    -0.792839182112E+03   -0.44790E+00   -0.14804E+00 16768   0.842E-01    0.796E+00
RMM:   6    -0.792941620600E+03   -0.10244E+00   -0.41500E-01 16623   0.432E-01    0.491E+00
RMM:   7    -0.793111103059E+03   -0.16948E+00   -0.28787E-01 16472   0.331E-01    0.331E+00
RMM:   8    -0.793175954673E+03   -0.64852E-01   -0.25553E-01 16790   0.276E-01    0.308E+00
RMM:   9    -0.793175284003E+03    0.67067E-03   -0.11955E-01 16997   0.214E-01    0.339E+00
RMM:  10    -0.793114733716E+03    0.60550E-01   -0.77491E-02 16704   0.188E-01    0.178E+00
RMM:  11    -0.793094547104E+03    0.20187E-01   -0.49095E-02 16554   0.150E-01    0.150E+00
RMM:  12    -0.793093602012E+03    0.94509E-03   -0.26468E-02 16608   0.110E-01    0.133E+00
RMM:  13    -0.793072669669E+03    0.20932E-01   -0.18591E-02 16529   0.901E-02    0.703E-01
RMM:  14    -0.793070685600E+03    0.19841E-02   -0.73467E-03 16547   0.546E-02    0.507E-01
RMM:  15    -0.793073004450E+03   -0.23188E-02   -0.25755E-03 16619   0.353E-02    0.219E-01
RMM:  16    -0.793079286868E+03   -0.62824E-02   -0.11063E-03 16357   0.230E-02    0.179E-01
RMM:  17    -0.793089815007E+03   -0.10528E-01   -0.90541E-04 15969   0.194E-02    0.970E-02
RMM:  18    -0.793098059461E+03   -0.82445E-02   -0.46356E-04 14776   0.126E-02    0.924E-02
RMM:  19    -0.793104371611E+03   -0.63121E-02   -0.28206E-04 14252   0.946E-03    0.688E-02
RMM:  20    -0.793110156248E+03   -0.57846E-02   -0.22677E-04 13677   0.735E-03    0.524E-02
RMM:  21    -0.793114367069E+03   -0.42108E-02   -0.15214E-04 12842   0.539E-03    0.436E-02
RMM:  22    -0.793119639451E+03   -0.52724E-02   -0.17774E-04 12245   0.470E-03    0.395E-02
RMM:  23    -0.793124546372E+03   -0.49069E-02   -0.18027E-04 12464   0.472E-03    0.381E-02
RMM:  24    -0.793130466940E+03   -0.59206E-02   -0.31675E-04 12760   0.571E-03    0.240E-02
RMM:  25    -0.793133719200E+03   -0.32523E-02   -0.12123E-04 12052   0.386E-03    0.220E-02
RMM:  26    -0.793136847980E+03   -0.31288E-02   -0.60462E-05 11205   0.311E-03    0.177E-02
RMM:  27    -0.793140015391E+03   -0.31674E-02   -0.52573E-05 10729   0.281E-03    0.156E-02
RMM:  28    -0.793142342310E+03   -0.23269E-02   -0.35702E-05 10515   0.235E-03    0.124E-02
RMM:  29    -0.793144711316E+03   -0.23690E-02   -0.28834E-05 10220   0.194E-03    0.117E-02
RMM:  30    -0.793146709347E+03   -0.19980E-02   -0.21761E-05  9904   0.191E-03    0.716E-03
RMM:  31    -0.793148265252E+03   -0.15559E-02   -0.14435E-05  9596   0.163E-03    0.550E-03
RMM:  32    -0.793148730680E+03   -0.46543E-03   -0.31558E-06  7054   0.986E-04    0.470E-03
RMM:  33    -0.793148975305E+03   -0.24463E-03   -0.17288E-06  6403   0.104E-03    0.367E-03
RMM:  34    -0.793149097902E+03   -0.12260E-03   -0.16270E-06  7574   0.104E-03    0.362E-03
RMM:  35    -0.793149187876E+03   -0.89975E-04   -0.17057E-06  6336   0.816E-04    0.330E-03
RMM:  36    -0.793149280049E+03   -0.92172E-04   -0.26187E-06  6841   0.857E-04    0.267E-03
RMM:  37    -0.793149403006E+03   -0.12296E-03   -0.46430E-06  8274   0.109E-03    0.188E-03
RMM:  38    -0.793149488380E+03   -0.85374E-04   -0.23244E-06  6083   0.773E-04    0.174E-03
RMM:  39    -0.793149582630E+03   -0.94250E-04   -0.25721E-06  7011   0.845E-04    0.114E-03
RMM:  40    -0.793149636454E+03   -0.53824E-04   -0.11240E-06  4916   0.663E-04    0.875E-04
RMM:  41    -0.793149671384E+03   -0.34929E-04   -0.77660E-07  5419   0.681E-04    0.866E-04
RMM:  42    -0.793149696595E+03   -0.25211E-04   -0.55225E-07  4961   0.641E-04    0.683E-04
RMM:  43    -0.793149709926E+03   -0.13332E-04   -0.36279E-07  4317   0.587E-04    0.410E-04
RMM:  44    -0.793149714597E+03   -0.46709E-05   -0.23769E-07  3415   0.513E-04
  16 F= -.79314971E+03 E0= -.79338021E+03  d E =-.286960E+01  mag=    66.0370
       N       E                     dE             d eps       ncg     rms          rms(c)
DAV:   1    -0.777174691405E+03    0.15975E+02   -0.11639E+03 21096   0.741E+01    0.602E+00
RMM:   2    -0.803014836319E+03   -0.25840E+02   -0.26117E+02 17177   0.143E+01    0.852E+00
RMM:   3    -0.796465324958E+03    0.65495E+01   -0.70310E+00 19275   0.261E+00    0.145E+01
RMM:   4    -0.793456659286E+03    0.30087E+01   -0.10399E+00 17685   0.757E-01    0.427E+00
RMM:   5    -0.793434912543E+03    0.21747E-01   -0.20057E-01 16655   0.334E-01    0.233E+00
RMM:   6    -0.793428003337E+03    0.69092E-02   -0.87864E-02 16818   0.175E-01    0.242E+00
RMM:   7    -0.793418450268E+03    0.95531E-02   -0.30730E-02 16625   0.113E-01    0.174E+00
RMM:   8    -0.793417962678E+03    0.48759E-03   -0.56294E-02 16454   0.155E-01    0.856E-01
RMM:   9    -0.793408881226E+03    0.90815E-02   -0.23985E-02 16874   0.962E-02    0.567E-01
RMM:  10    -0.793408964421E+03   -0.83195E-04   -0.93010E-03 16532   0.609E-02    0.646E-01
RMM:  11    -0.793409305137E+03   -0.34072E-03   -0.47007E-03 16260   0.472E-02    0.627E-01
RMM:  12    -0.793409816732E+03   -0.51160E-03   -0.22893E-03 15888   0.326E-02    0.380E-01
RMM:  13    -0.793412356058E+03   -0.25393E-02   -0.14641E-03 16288   0.254E-02    0.121E-01
RMM:  14    -0.793414393008E+03   -0.20370E-02   -0.43025E-04 15065   0.137E-02    0.129E-01
RMM:  15    -0.793416015764E+03   -0.16228E-02   -0.19813E-04 14449   0.933E-03    0.583E-02
RMM:  16    -0.793417562907E+03   -0.15471E-02   -0.10196E-04 13631   0.620E-03    0.470E-02
RMM:  17    -0.793419407380E+03   -0.18445E-02   -0.72411E-05 12360   0.470E-03    0.315E-02
RMM:  18    -0.793421156521E+03   -0.17491E-02   -0.48297E-05 11148   0.356E-03    0.381E-02
RMM:  19    -0.793422877341E+03   -0.17208E-02   -0.61590E-05 10319   0.350E-03    0.315E-02
RMM:  20    -0.793426213603E+03   -0.33363E-02   -0.13699E-04 11923   0.428E-03    0.267E-02
RMM:  21    -0.793428193350E+03   -0.19797E-02   -0.83933E-05 10912   0.318E-03    0.196E-02
RMM:  22    -0.793431142136E+03   -0.29488E-02   -0.10809E-04 11162   0.333E-03    0.126E-02
RMM:  23    -0.793432411013E+03   -0.12689E-02   -0.49069E-05 10014   0.217E-03    0.971E-03
RMM:  24    -0.793434635424E+03   -0.22244E-02   -0.49120E-05 10704   0.229E-03    0.744E-03
RMM:  25    -0.793435707843E+03   -0.10724E-02   -0.24543E-05  9540   0.158E-03    0.549E-03
RMM:  26    -0.793436993687E+03   -0.12858E-02   -0.18776E-05  9213   0.136E-03    0.417E-03
RMM:  27    -0.793437594055E+03   -0.60037E-03   -0.10438E-05  8337   0.108E-03    0.334E-03
RMM:  28    -0.793438157197E+03   -0.56314E-03   -0.12171E-05  8346   0.123E-03    0.210E-03
RMM:  29    -0.793438331351E+03   -0.17415E-03   -0.41982E-06  7026   0.101E-03    0.137E-03
RMM:  30    -0.793438436392E+03   -0.10504E-03   -0.27339E-06  6845   0.100E-03    0.937E-04
RMM:  31    -0.793438461956E+03   -0.25564E-04   -0.11186E-06  6015   0.797E-04    0.771E-04
RMM:  32    -0.793438468698E+03   -0.67423E-05   -0.52394E-07  5123   0.682E-04
  17 F= -.79343847E+03 E0= -.79366103E+03  d E =-.315835E+01  mag=    65.8841
       N       E                     dE             d eps       ncg     rms          rms(c)
DAV:   1    -0.793430336855E+03    0.81251E-02   -0.10067E+01 21182   0.688E+00    0.518E-01
RMM:   2    -0.793630415911E+03   -0.20008E+00   -0.20932E+00 16638   0.123E+00    0.269E-01
RMM:   3    -0.793555116447E+03    0.75299E-01   -0.45255E-02 18946   0.225E-01    0.469E-01
RMM:   4    -0.793553205483E+03    0.19110E-02   -0.25038E-03 17964   0.319E-02    0.182E-01
RMM:   5    -0.793553414189E+03   -0.20871E-03   -0.78934E-04 16609   0.203E-02    0.210E-01
RMM:   6    -0.793552853253E+03    0.56094E-03   -0.61961E-04 15541   0.144E-02    0.179E-01
RMM:   7    -0.793552699236E+03    0.15402E-03   -0.19397E-04 14713   0.937E-03    0.123E-01
RMM:   8    -0.793552636986E+03    0.62250E-04   -0.25776E-04 14838   0.109E-02    0.831E-02
RMM:   9    -0.793552369116E+03    0.26787E-03   -0.13109E-04 14096   0.759E-03    0.547E-02
RMM:  10    -0.793552292871E+03    0.76246E-04   -0.37209E-05 11280   0.425E-03    0.413E-02
RMM:  11    -0.793552229009E+03    0.63862E-04   -0.21800E-05  9800   0.350E-03    0.547E-02
RMM:  12    -0.793552138955E+03    0.90054E-04   -0.13672E-05  8896   0.310E-03    0.128E-02
RMM:  13    -0.793552168329E+03   -0.29375E-04   -0.40672E-06  8172   0.176E-03    0.117E-02
RMM:  14    -0.793552203658E+03   -0.35329E-04   -0.21207E-06  8074   0.116E-03    0.408E-03
RMM:  15    -0.793552275601E+03   -0.71943E-04   -0.21096E-06  7134   0.862E-04    0.303E-03
RMM:  16    -0.793552340067E+03   -0.64466E-04   -0.20198E-06  6413   0.775E-04    0.291E-03
RMM:  17    -0.793552425817E+03   -0.85750E-04   -0.42792E-06  6756   0.852E-04    0.259E-03
RMM:  18    -0.793552467653E+03   -0.41836E-04   -0.13727E-06  3906   0.605E-04    0.245E-03
RMM:  19    -0.793552542045E+03   -0.74391E-04   -0.27980E-06  5278   0.714E-04    0.156E-03
RMM:  20    -0.793552596982E+03   -0.54937E-04   -0.18462E-06  4492   0.650E-04    0.127E-03
RMM:  21    -0.793552656533E+03   -0.59552E-04   -0.18846E-06  4483   0.637E-04    0.888E-04
RMM:  22    -0.793552703364E+03   -0.46831E-04   -0.94513E-07  3427   0.574E-04    0.735E-04
RMM:  23    -0.793552753914E+03   -0.50550E-04   -0.73204E-07  3585   0.589E-04    0.630E-04
RMM:  24    -0.793552799828E+03   -0.45914E-04   -0.77452E-07  4355   0.634E-04    0.600E-04
RMM:  25    -0.793552837374E+03   -0.37546E-04   -0.72719E-07  4522   0.647E-04    0.410E-04
RMM:  26    -0.793552852813E+03   -0.15439E-04   -0.34213E-07  3711   0.594E-04    0.299E-04
RMM:  27    -0.793552862724E+03   -0.99111E-05   -0.35028E-07  4327   0.631E-04
  18 F= -.79355286E+03 E0= -.79377455E+03  d E =-.114394E+00  mag=    65.8752
       N       E                     dE             d eps       ncg     rms          rms(c)
DAV:   1    -0.792777986750E+03    0.77487E+00   -0.90549E+01 21242   0.206E+01    0.156E+00
RMM:   2    -0.794597453460E+03   -0.18195E+01   -0.18898E+01 17195   0.371E+00    0.908E-01
RMM:   3    -0.793919753383E+03    0.67770E+00   -0.42303E-01 19658   0.682E-01    0.121E+00
RMM:   4    -0.793900350742E+03    0.19403E-01   -0.21007E-02 18721   0.107E-01    0.917E-01
RMM:   5    -0.793894224367E+03    0.61264E-02   -0.67785E-03 16865   0.586E-02    0.393E-01
RMM:   6    -0.793891906969E+03    0.23174E-02   -0.55094E-03 16546   0.417E-02    0.526E-01
RMM:   7    -0.793890607092E+03    0.12999E-02   -0.16537E-03 15875   0.267E-02    0.372E-01
RMM:   8    -0.793889604955E+03    0.10021E-02   -0.22227E-03 15609   0.319E-02    0.244E-01
RMM:   9    -0.793887909402E+03    0.16956E-02   -0.11543E-03 15810   0.221E-02    0.163E-01
RMM:  10    -0.793887505960E+03    0.40344E-03   -0.35745E-04 15243   0.121E-02    0.128E-01
RMM:  11    -0.793887296435E+03    0.20952E-03   -0.20978E-04 14665   0.962E-03    0.160E-01
RMM:  12    -0.793886942645E+03    0.35379E-03   -0.14724E-04 14050   0.860E-03    0.403E-02
RMM:  13    -0.793887206477E+03   -0.26383E-03   -0.35036E-05 11099   0.445E-03    0.364E-02
RMM:  14    -0.793887492525E+03   -0.28605E-03   -0.20535E-05  9472   0.319E-03    0.125E-02
RMM:  15    -0.793887878623E+03   -0.38610E-03   -0.13340E-05  9149   0.208E-03    0.945E-03
RMM:  16    -0.793888296051E+03   -0.41743E-03   -0.16561E-05  9271   0.184E-03    0.953E-03
RMM:  17    -0.793888703760E+03   -0.40771E-03   -0.16231E-05  9364   0.158E-03    0.880E-03
RMM:  18    -0.793888986795E+03   -0.28303E-03   -0.10108E-05  8606   0.122E-03    0.832E-03
RMM:  19    -0.793889402662E+03   -0.41587E-03   -0.16655E-05  8880   0.130E-03    0.485E-03
RMM:  20    -0.793889679693E+03   -0.27703E-03   -0.10559E-05  7387   0.106E-03    0.442E-03
RMM:  21    -0.793889992636E+03   -0.31294E-03   -0.10011E-05  7311   0.103E-03    0.275E-03
RMM:  22    -0.793890212052E+03   -0.21942E-03   -0.43478E-06  5561   0.779E-04    0.228E-03
RMM:  23    -0.793890510415E+03   -0.29836E-03   -0.40814E-06  5775   0.792E-04    0.196E-03
RMM:  24    -0.793890746053E+03   -0.23564E-03   -0.27703E-06  5550   0.741E-04    0.179E-03
RMM:  25    -0.793890961054E+03   -0.21500E-03   -0.31089E-06  6792   0.850E-04    0.119E-03
RMM:  26    -0.793891074939E+03   -0.11389E-03   -0.15952E-06  5760   0.771E-04    0.919E-04
RMM:  27    -0.793891147804E+03   -0.72865E-04   -0.12210E-06  5601   0.779E-04    0.605E-04
RMM:  28    -0.793891167909E+03   -0.20106E-04   -0.47673E-07  3819   0.600E-04    0.433E-04
RMM:  29    -0.793891178895E+03   -0.10986E-04   -0.35370E-07  4477   0.640E-04    0.304E-04
RMM:  30    -0.793891182654E+03   -0.37589E-05   -0.14053E-07  3086   0.518E-04
  19 F= -.79389118E+03 E0= -.79411027E+03  d E =-.452714E+00  mag=    65.8396
       N       E                     dE             d eps       ncg     rms          rms(c)
DAV:   1    -0.789956525612E+03    0.39347E+01   -0.36146E+02 21132   0.413E+01    0.317E+00
RMM:   2    -0.797433735211E+03   -0.74772E+01   -0.77066E+01 17176   0.756E+00    0.262E+00
RMM:   3    -0.795134900257E+03    0.22988E+01   -0.18730E+00 19458   0.141E+00    0.591E+00
RMM:   4    -0.794583007856E+03    0.55189E+00   -0.19126E-01 17721   0.323E-01    0.188E+00
RMM:   5    -0.794565713854E+03    0.17294E-01   -0.34407E-02 17098   0.137E-01    0.101E+00
RMM:   6    -0.794553424489E+03    0.12289E-01   -0.23387E-02 16962   0.897E-02    0.116E+00
RMM:   7    -0.794547328093E+03    0.60964E-02   -0.65762E-03 16481   0.538E-02    0.729E-01
RMM:   8    -0.794545075718E+03    0.22524E-02   -0.98509E-03 16129   0.678E-02    0.463E-01
RMM:   9    -0.794541016570E+03    0.40591E-02   -0.48089E-03 16497   0.449E-02    0.307E-01
RMM:  10    -0.794540267773E+03    0.74880E-03   -0.15927E-03 15724   0.253E-02    0.252E-01
RMM:  11    -0.794540205731E+03    0.62042E-04   -0.10222E-03 15714   0.213E-02    0.347E-01
RMM:  12    -0.794539626092E+03    0.57964E-03   -0.49821E-04 15264   0.155E-02    0.100E-01
RMM:  13    -0.794540804819E+03   -0.11787E-02   -0.20112E-04 14325   0.988E-03    0.836E-02
RMM:  14    -0.794541515960E+03   -0.71114E-03   -0.88731E-05 13532   0.634E-03    0.288E-02
RMM:  15    -0.794542411738E+03   -0.89578E-03   -0.37944E-05 10741   0.367E-03    0.190E-02
RMM:  16    -0.794543281714E+03   -0.86998E-03   -0.25773E-05 10194   0.288E-03    0.200E-02
RMM:  17    -0.794544201057E+03   -0.91934E-03   -0.34698E-05 10005   0.267E-03    0.167E-02
RMM:  18    -0.794545195544E+03   -0.99449E-03   -0.31850E-05 10177   0.235E-03    0.172E-02
RMM:  19    -0.794546153720E+03   -0.95818E-03   -0.40826E-05 10126   0.238E-03    0.109E-02
RMM:  20    -0.794547055060E+03   -0.90134E-03   -0.40342E-05  9873   0.205E-03    0.105E-02
RMM:  21    -0.794547842400E+03   -0.78734E-03   -0.33365E-05  9703   0.178E-03    0.674E-03
RMM:  22    -0.794548653481E+03   -0.81108E-03   -0.23540E-05  9431   0.155E-03    0.560E-03
RMM:  23    -0.794549326700E+03   -0.67322E-03   -0.13257E-05  8926   0.122E-03    0.373E-03
RMM:  24    -0.794549969122E+03   -0.64242E-03   -0.81551E-06  7221   0.102E-03    0.353E-03
RMM:  25    -0.794550541132E+03   -0.57201E-03   -0.69139E-06  7234   0.961E-04    0.218E-03
RMM:  26    -0.794551043871E+03   -0.50274E-03   -0.80432E-06  8027   0.101E-03    0.201E-03
RMM:  27    -0.794551254729E+03   -0.21086E-03   -0.38611E-06  6879   0.932E-04    0.109E-03
RMM:  28    -0.794551352941E+03   -0.98212E-04   -0.21469E-06  6428   0.864E-04    0.850E-04
RMM:  29    -0.794551388227E+03   -0.35286E-04   -0.90706E-07  5052   0.692E-04    0.480E-04
RMM:  30    -0.794551402372E+03   -0.14146E-04   -0.43369E-07  4290   0.616E-04    0.336E-04
RMM:  31    -0.794551407570E+03   -0.51974E-05   -0.20376E-07  3760   0.555E-04
  20 F= -.79455141E+03 E0= -.79476548E+03  d E =-.111294E+01  mag=    65.7673
       N       E                     dE             d eps       ncg     rms          rms(c)
DAV:   1    -0.775289912656E+03    0.19261E+02   -0.14358E+03 21126   0.827E+01    0.664E+00
RMM:   2    -0.807727513644E+03   -0.32438E+02   -0.32581E+02 17116   0.160E+01    0.104E+01
RMM:   3    -0.799260024391E+03    0.84675E+01   -0.88424E+00 19314   0.293E+00    0.156E+01
RMM:   4    -0.795727821304E+03    0.35322E+01   -0.13389E+00 17615   0.863E-01    0.538E+00
RMM:   5    -0.795683629082E+03    0.44192E-01   -0.28932E-01 16617   0.403E-01    0.279E+00
RMM:   6    -0.795733220359E+03   -0.49591E-01   -0.12000E-01 16645   0.215E-01    0.361E+00
RMM:   7    -0.795692094754E+03    0.41126E-01   -0.51321E-02 16549   0.146E-01    0.174E+00
RMM:   8    -0.795707891162E+03   -0.15796E-01   -0.72050E-02 16459   0.170E-01    0.888E-01
RMM:   9    -0.795700891705E+03    0.69995E-02   -0.29845E-02 16958   0.105E-01    0.638E-01
RMM:  10    -0.795700170214E+03    0.72149E-03   -0.11652E-02 16882   0.672E-02    0.636E-01
RMM:  11    -0.795700593985E+03   -0.42377E-03   -0.62752E-03 16363   0.541E-02    0.533E-01
RMM:  12    -0.795703294586E+03   -0.27006E-02   -0.24133E-03 16171   0.327E-02    0.575E-01
RMM:  13    -0.795704796506E+03   -0.15019E-02   -0.19898E-03 16462   0.290E-02    0.191E-01
RMM:  14    -0.795706813418E+03   -0.20169E-02   -0.62129E-04 15143   0.166E-02    0.162E-01
RMM:  15    -0.795709700352E+03   -0.28869E-02   -0.29970E-04 14636   0.111E-02    0.610E-02
RMM:  16    -0.795711381265E+03   -0.16809E-02   -0.12986E-04 13872   0.700E-03    0.524E-02
RMM:  17    -0.795713755319E+03   -0.23741E-02   -0.85451E-05 13069   0.520E-03    0.331E-02
RMM:  18    -0.795716021978E+03   -0.22667E-02   -0.86320E-05 11892   0.439E-03    0.367E-02
RMM:  19    -0.795718132290E+03   -0.21103E-02   -0.61089E-05 11159   0.360E-03    0.340E-02
RMM:  20    -0.795721416759E+03   -0.32845E-02   -0.12389E-04 11679   0.407E-03    0.286E-02
RMM:  21    -0.795723933019E+03   -0.25163E-02   -0.10270E-04 11154   0.347E-03    0.227E-02
RMM:  22    -0.795726439846E+03   -0.25068E-02   -0.10416E-04 11003   0.320E-03    0.150E-02
RMM:  23    -0.795727935568E+03   -0.14957E-02   -0.49738E-05 10299   0.221E-03    0.122E-02
RMM:  24    -0.795729907773E+03   -0.19722E-02   -0.42711E-05 10446   0.222E-03    0.948E-03
RMM:  25    -0.795731362598E+03   -0.14548E-02   -0.31780E-05  9877   0.179E-03    0.671E-03
RMM:  26    -0.795732771110E+03   -0.14085E-02   -0.22713E-05  9809   0.153E-03    0.556E-03
RMM:  27    -0.795733441026E+03   -0.66992E-03   -0.11202E-05  8214   0.114E-03    0.396E-03
RMM:  28    -0.795734138709E+03   -0.69768E-03   -0.14379E-05  8673   0.125E-03    0.332E-03
RMM:  29    -0.795734377477E+03   -0.23877E-03   -0.63260E-06  7609   0.110E-03    0.210E-03
RMM:  30    -0.795734501831E+03   -0.12435E-03   -0.47851E-06  8631   0.126E-03    0.172E-03
RMM:  31    -0.795734513818E+03   -0.11987E-04   -0.17886E-06  5944   0.802E-04    0.151E-03
RMM:  32    -0.795734523855E+03   -0.10037E-04   -0.75541E-07  4429   0.633E-04    0.128E-03
RMM:  33    -0.795734537255E+03   -0.13400E-04   -0.45014E-07  3704   0.566E-04    0.111E-03
RMM:  34    -0.795734557935E+03   -0.20680E-04   -0.49457E-07  3825   0.550E-04    0.987E-04
RMM:  35    -0.795734582694E+03   -0.24759E-04   -0.52191E-07  3946   0.563E-04    0.814E-04
RMM:  36    -0.795734606956E+03   -0.24262E-04   -0.45456E-07  4078   0.588E-04    0.683E-04
RMM:  37    -0.795734631343E+03   -0.24388E-04   -0.42031E-07  4252   0.601E-04    0.563E-04
RMM:  38    -0.795734648898E+03   -0.17554E-04   -0.23929E-07  3391   0.558E-04    0.451E-04
RMM:  39    -0.795734661014E+03   -0.12117E-04   -0.16725E-07  3386   0.566E-04    0.345E-04
RMM:  40    -0.795734669909E+03   -0.88944E-05   -0.11749E-07  3194   0.547E-04
  21 F= -.79573467E+03 E0= -.79593963E+03  d E =-.229620E+01  mag=    65.6336
       N       E                     dE             d eps       ncg     rms          rms(c)
DAV:   1    -0.691760299025E+03    0.10397E+03   -0.56583E+03 21414   0.167E+02    0.153E+01
RMM:   2    -0.859059761824E+03   -0.16730E+03   -0.15209E+03 17463   0.350E+01    0.380E+01
RMM:   3    -0.805711697948E+03    0.53348E+02   -0.52470E+01 18670   0.681E+00    0.241E+01
RMM:   4    -0.796205073717E+03    0.95066E+01   -0.82059E+00 16923   0.232E+00    0.160E+01
RMM:   5    -0.796306942177E+03   -0.10187E+00   -0.24941E+00 16580   0.118E+00    0.939E+00
RMM:   6    -0.796965682259E+03   -0.65874E+00   -0.10079E+00 16506   0.649E-01    0.973E+00
RMM:   7    -0.796919371530E+03    0.46311E-01   -0.50859E-01 16505   0.439E-01    0.466E+00
RMM:   8    -0.797283180701E+03   -0.36381E+00   -0.45671E-01 16467   0.376E-01    0.387E+00
RMM:   9    -0.797322970909E+03   -0.39790E-01   -0.16454E-01 17095   0.231E-01    0.293E+00
RMM:  10    -0.797339449078E+03   -0.16478E-01   -0.14266E-01 16617   0.227E-01    0.219E+00
RMM:  11    -0.797311699823E+03    0.27749E-01   -0.77564E-02 16772   0.180E-01    0.121E+00
RMM:  12    -0.797318362941E+03   -0.66631E-02   -0.29713E-02 16774   0.111E-01    0.108E+00
RMM:  13    -0.797329797239E+03   -0.11434E-01   -0.17941E-02 16742   0.878E-02    0.725E-01
RMM:  14    -0.797337292319E+03   -0.74951E-02   -0.10066E-02 16637   0.674E-02    0.559E-01
RMM:  15    -0.797340508448E+03   -0.32161E-02   -0.53387E-03 16652   0.473E-02    0.228E-01
RMM:  16    -0.797344190114E+03   -0.36817E-02   -0.14868E-03 16599   0.265E-02    0.205E-01
RMM:  17    -0.797349326519E+03   -0.51364E-02   -0.70997E-04 16266   0.180E-02    0.116E-01
RMM:  18    -0.797356786593E+03   -0.74601E-02   -0.68802E-04 15785   0.156E-02    0.103E-01
RMM:  19    -0.797363392067E+03   -0.66055E-02   -0.32901E-04 14104   0.101E-02    0.920E-02
RMM:  20    -0.797367048682E+03   -0.36566E-02   -0.11883E-04 13670   0.596E-03    0.889E-02
RMM:  21    -0.797373557987E+03   -0.65093E-02   -0.18007E-04 12938   0.617E-03    0.666E-02
RMM:  22    -0.797379447319E+03   -0.58893E-02   -0.13095E-04 12604   0.512E-03    0.552E-02
RMM:  23    -0.797389802372E+03   -0.10355E-01   -0.34858E-04 13242   0.697E-03    0.418E-02
RMM:  24    -0.797397623921E+03   -0.78215E-02   -0.27458E-04 12819   0.557E-03    0.378E-02
RMM:  25    -0.797403505820E+03   -0.58819E-02   -0.22429E-04 12301   0.482E-03    0.296E-02
RMM:  26    -0.797408692780E+03   -0.51870E-02   -0.20310E-04 12243   0.431E-03    0.217E-02
RMM:  27    -0.797411961266E+03   -0.32685E-02   -0.13348E-04 11919   0.361E-03    0.148E-02
RMM:  28    -0.797413796430E+03   -0.18352E-02   -0.52360E-05 11193   0.249E-03    0.101E-02
RMM:  29    -0.797414835981E+03   -0.10396E-02   -0.18134E-05 10111   0.179E-03    0.752E-03
RMM:  30    -0.797416051327E+03   -0.12153E-02   -0.37906E-05 10316   0.236E-03    0.698E-03
RMM:  31    -0.797416385021E+03   -0.33369E-03   -0.26411E-05  9900   0.192E-03    0.645E-03
RMM:  32    -0.797416528170E+03   -0.14315E-03   -0.15630E-05  8437   0.127E-03    0.516E-03
RMM:  33    -0.797416650421E+03   -0.12225E-03   -0.52374E-06  6448   0.878E-04    0.465E-03
RMM:  34    -0.797416829589E+03   -0.17917E-03   -0.39003E-06  6466   0.817E-04    0.440E-03
RMM:  35    -0.797417044239E+03   -0.21465E-03   -0.37424E-06  5807   0.760E-04    0.396E-03
RMM:  36    -0.797417529432E+03   -0.48519E-03   -0.82790E-06  8535   0.119E-03    0.333E-03
RMM:  37    -0.797417831258E+03   -0.30183E-03   -0.42139E-06  7305   0.965E-04    0.265E-03
RMM:  38    -0.797418092607E+03   -0.26135E-03   -0.32253E-06  7680   0.104E-03    0.171E-03
RMM:  39    -0.797418200853E+03   -0.10825E-03   -0.11631E-06  5696   0.769E-04    0.127E-03
RMM:  40    -0.797418268976E+03   -0.68123E-04   -0.66697E-07  6047   0.836E-04    0.791E-04
RMM:  41    -0.797418302846E+03   -0.33870E-04   -0.35064E-07  5199   0.747E-04    0.649E-04
RMM:  42    -0.797418317814E+03   -0.14968E-04   -0.30392E-07  5639   0.771E-04    0.409E-04
RMM:  43    -0.797418324237E+03   -0.64227E-05   -0.10757E-07  3932   0.539E-04
  22 F= -.79741832E+03 E0= -.79760868E+03  d E =-.397986E+01  mag=    65.3813
       N       E                     dE             d eps       ncg     rms          rms(c)
DAV:   1    -0.795798056936E+03    0.16203E+01   -0.25680E+02 21340   0.336E+01    0.292E+00
RMM:   2    -0.801377599132E+03   -0.55795E+01   -0.57410E+01 17273   0.625E+00    0.252E+00
RMM:   3    -0.799735376134E+03    0.16422E+01   -0.14721E+00 19670   0.117E+00    0.564E+00
RMM:   4    -0.799294855440E+03    0.44052E+00   -0.16276E-01 17091   0.274E-01    0.169E+00
RMM:   5    -0.799283900274E+03    0.10955E-01   -0.34527E-02 16897   0.139E-01    0.972E-01
RMM:   6    -0.799281145181E+03    0.27551E-02   -0.23948E-02 16863   0.898E-02    0.134E+00
RMM:   7    -0.799274905011E+03    0.62402E-02   -0.96661E-03 16539   0.646E-02    0.876E-01
RMM:   8    -0.799272691318E+03    0.22137E-02   -0.14621E-02 16283   0.793E-02    0.741E-01
RMM:   9    -0.799268136138E+03    0.45552E-02   -0.67905E-03 16346   0.561E-02    0.442E-01
RMM:  10    -0.799267128196E+03    0.10079E-02   -0.24305E-03 15726   0.329E-02    0.194E-01
RMM:  11    -0.799268034814E+03   -0.90662E-03   -0.90954E-04 15671   0.209E-02    0.213E-01
RMM:  12    -0.799268470485E+03   -0.43567E-03   -0.28962E-04 14898   0.117E-02    0.203E-01
RMM:  13    -0.799269060681E+03   -0.59020E-03   -0.20865E-04 14573   0.985E-03    0.117E-01
RMM:  14    -0.799269716549E+03   -0.65587E-03   -0.13345E-04 13880   0.776E-03    0.430E-02
RMM:  15    -0.799270161762E+03   -0.44521E-03   -0.40027E-05 11415   0.409E-03    0.236E-02
RMM:  16    -0.799270534046E+03   -0.37228E-03   -0.16696E-05  9543   0.277E-03    0.167E-02
RMM:  17    -0.799271085707E+03   -0.55166E-03   -0.17790E-05  9408   0.224E-03    0.149E-02
RMM:  18    -0.799271514913E+03   -0.42921E-03   -0.14265E-05  9215   0.190E-03    0.115E-02
RMM:  19    -0.799272054975E+03   -0.54006E-03   -0.18592E-05  9661   0.176E-03    0.936E-03
RMM:  20    -0.799272410765E+03   -0.35579E-03   -0.10981E-05  9000   0.136E-03    0.940E-03
RMM:  21    -0.799273014830E+03   -0.60407E-03   -0.24767E-05  9697   0.166E-03    0.675E-03
RMM:  22    -0.799273370440E+03   -0.35561E-03   -0.15115E-05  8665   0.129E-03    0.513E-03
RMM:  23    -0.799273820361E+03   -0.44992E-03   -0.16780E-05  8300   0.125E-03    0.363E-03
RMM:  24    -0.799274086712E+03   -0.26635E-03   -0.64622E-06  6509   0.913E-04    0.282E-03
RMM:  25    -0.799274463886E+03   -0.37717E-03   -0.52871E-06  7149   0.933E-04    0.238E-03
RMM:  26    -0.799274701836E+03   -0.23795E-03   -0.28223E-06  6093   0.813E-04    0.194E-03
RMM:  27    -0.799275028244E+03   -0.32641E-03   -0.55222E-06  8163   0.120E-03    0.144E-03
RMM:  28    -0.799275102463E+03   -0.74219E-04   -0.16542E-06  5838   0.806E-04    0.111E-03
RMM:  29    -0.799275145244E+03   -0.42781E-04   -0.18614E-06  7674   0.112E-03    0.771E-04
RMM:  30    -0.799275146396E+03   -0.11515E-05   -0.60414E-07  4765   0.691E-04
  23 F= -.79927515E+03 E0= -.79946272E+03  d E =-.185682E+01  mag=    65.3726
       N       E                     dE             d eps       ncg     rms          rms(c)
DAV:   1    -0.797140125971E+03    0.21350E+01   -0.22659E+02 21362   0.317E+01    0.260E+00
RMM:   2    -0.801953414413E+03   -0.48133E+01   -0.49526E+01 17234   0.584E+00    0.212E+00
RMM:   3    -0.800475600699E+03    0.14778E+01   -0.12214E+00 19654   0.109E+00    0.470E+00
RMM:   4    -0.800146670561E+03    0.32893E+00   -0.12440E-01 17326   0.242E-01    0.159E+00
RMM:   5    -0.800136007359E+03    0.10663E-01   -0.29115E-02 16882   0.126E-01    0.849E-01
RMM:   6    -0.800134335803E+03    0.16716E-02   -0.24162E-02 16860   0.908E-02    0.127E+00
RMM:   7    -0.800127710687E+03    0.66251E-02   -0.83890E-03 16473   0.608E-02    0.749E-01
RMM:   8    -0.800126310847E+03    0.13998E-02   -0.11158E-02 16150   0.708E-02    0.629E-01
RMM:   9    -0.800122837006E+03    0.34738E-02   -0.48090E-03 16348   0.479E-02    0.375E-01
RMM:  10    -0.800122343903E+03    0.49310E-03   -0.18136E-03 15686   0.287E-02    0.172E-01
RMM:  11    -0.800123141529E+03   -0.79763E-03   -0.57043E-04 15635   0.173E-02    0.150E-01
RMM:  12    -0.800123528954E+03   -0.38743E-03   -0.19206E-04 14695   0.956E-03    0.143E-01
RMM:  13    -0.800124015548E+03   -0.48659E-03   -0.11657E-04 13951   0.742E-03    0.886E-02
RMM:  14    -0.800124660004E+03   -0.64446E-03   -0.79276E-05 13394   0.602E-03    0.272E-02
RMM:  15    -0.800125024560E+03   -0.36456E-03   -0.20032E-05  9422   0.305E-03    0.191E-02
RMM:  16    -0.800125549059E+03   -0.52450E-03   -0.17382E-05  9687   0.239E-03    0.146E-02
RMM:  17    -0.800126036533E+03   -0.48747E-03   -0.17816E-05  9593   0.207E-03    0.137E-02
RMM:  18    -0.800126565739E+03   -0.52921E-03   -0.21148E-05  9582   0.194E-03    0.101E-02
RMM:  19    -0.800126930626E+03   -0.36489E-03   -0.13897E-05  9240   0.150E-03    0.877E-03
RMM:  20    -0.800127302303E+03   -0.37168E-03   -0.14430E-05  9352   0.145E-03    0.870E-03
RMM:  21    -0.800127737534E+03   -0.43523E-03   -0.24676E-05  9737   0.160E-03    0.568E-03
RMM:  22    -0.800127978444E+03   -0.24091E-03   -0.10909E-05  7401   0.108E-03    0.438E-03
RMM:  23    -0.800128255013E+03   -0.27657E-03   -0.69599E-06  7291   0.983E-04    0.301E-03
RMM:  24    -0.800128532392E+03   -0.27738E-03   -0.45044E-06  6709   0.886E-04    0.272E-03
RMM:  25    -0.800128842007E+03   -0.30961E-03   -0.44263E-06  7166   0.958E-04    0.225E-03
RMM:  26    -0.800129048464E+03   -0.20646E-03   -0.29471E-06  7087   0.952E-04    0.202E-03
RMM:  27    -0.800129205301E+03   -0.15684E-03   -0.37985E-06  8336   0.137E-03    0.141E-03
RMM:  28    -0.800129217904E+03   -0.12603E-04   -0.15766E-06  7533   0.100E-03    0.113E-03
RMM:  29    -0.800129209286E+03    0.86183E-05   -0.11540E-06  6795   0.901E-04
  24 F= -.80012921E+03 E0= -.80031417E+03  d E =-.271089E+01  mag=    65.3816
       N       E                     dE             d eps       ncg     rms          rms(c)
DAV:   1    -0.787189448571E+03    0.12940E+02   -0.90111E+02 21264   0.637E+01    0.538E+00
RMM:   2    -0.808008436571E+03   -0.20819E+02   -0.21112E+02 17471   0.124E+01    0.655E+00
RMM:   3    -0.802760713176E+03    0.52477E+01   -0.57740E+00 19301   0.230E+00    0.121E+01
RMM:   4    -0.800656217036E+03    0.21045E+01   -0.83371E-01 17385   0.659E-01    0.395E+00
RMM:   5    -0.800594554914E+03    0.61662E-01   -0.17618E-01 16659   0.315E-01    0.195E+00
RMM:   6    -0.800573396099E+03    0.21159E-01   -0.82495E-02 16875   0.170E-01    0.166E+00
RMM:   7    -0.800597085981E+03   -0.23690E-01   -0.35314E-02 16526   0.122E-01    0.207E+00
RMM:   8    -0.800580821067E+03    0.16265E-01   -0.44260E-02 16472   0.134E-01    0.158E+00
RMM:   9    -0.800566013030E+03    0.14808E-01   -0.25466E-02 16555   0.107E-01    0.848E-01
RMM:  10    -0.800564224058E+03    0.17890E-02   -0.10576E-02 16473   0.665E-02    0.535E-01
RMM:  11    -0.800568592336E+03   -0.43683E-02   -0.48041E-03 16309   0.471E-02    0.694E-01
RMM:  12    -0.800568531792E+03    0.60544E-04   -0.23115E-03 15869   0.325E-02    0.451E-01
RMM:  13    -0.800572213914E+03   -0.36821E-02   -0.18808E-03 16169   0.287E-02    0.269E-01
RMM:  14    -0.800574002599E+03   -0.17887E-02   -0.84778E-04 15119   0.192E-02    0.116E-01
RMM:  15    -0.800575463399E+03   -0.14608E-02   -0.26749E-04 14500   0.104E-02    0.740E-02
RMM:  16    -0.800576446112E+03   -0.98271E-03   -0.94258E-05 13682   0.617E-03    0.371E-02
RMM:  17    -0.800577478756E+03   -0.10326E-02   -0.44463E-05 11505   0.402E-03    0.333E-02
RMM:  18    -0.800578752855E+03   -0.12741E-02   -0.55260E-05 11624   0.379E-03    0.281E-02
RMM:  19    -0.800579664589E+03   -0.91173E-03   -0.39592E-05 10577   0.310E-03    0.276E-02
RMM:  20    -0.800580886781E+03   -0.12222E-02   -0.63811E-05 11093   0.332E-03    0.220E-02
RMM:  21    -0.800581748733E+03   -0.86195E-03   -0.50768E-05 10427   0.275E-03    0.187E-02
RMM:  22    -0.800582748513E+03   -0.99978E-03   -0.69007E-05 11190   0.269E-03    0.126E-02
RMM:  23    -0.800583136637E+03   -0.38812E-03   -0.24692E-05  9520   0.162E-03    0.107E-02
RMM:  24    -0.800583810322E+03   -0.67368E-03   -0.27758E-05 10070   0.190E-03    0.780E-03
RMM:  25    -0.800584203648E+03   -0.39333E-03   -0.78004E-06  8904   0.137E-03    0.791E-03
RMM:  26    -0.800584663171E+03   -0.45952E-03   -0.87212E-06  9635   0.164E-03    0.598E-03
RMM:  27    -0.800584844195E+03   -0.18102E-03   -0.67787E-06  9004   0.151E-03    0.529E-03
RMM:  28    -0.800584816554E+03    0.27641E-04   -0.89032E-06  9206   0.145E-03    0.353E-03
RMM:  29    -0.800584801638E+03    0.14916E-04   -0.60024E-06  7351   0.102E-03    0.287E-03
RMM:  30    -0.800584871048E+03   -0.69410E-04   -0.45518E-06  5890   0.820E-04    0.240E-03
RMM:  31    -0.800584993089E+03   -0.12204E-03   -0.31705E-06  5762   0.759E-04    0.230E-03
RMM:  32    -0.800585105375E+03   -0.11229E-03   -0.19194E-06  5014   0.689E-04    0.194E-03
RMM:  33    -0.800585272432E+03   -0.16706E-03   -0.22014E-06  6397   0.779E-04    0.161E-03
RMM:  34    -0.800585470216E+03   -0.19778E-03   -0.20065E-06  6331   0.812E-04    0.134E-03
RMM:  35    -0.800585635954E+03   -0.16574E-03   -0.13809E-06  6223   0.812E-04    0.104E-03
RMM:  36    -0.800585762458E+03   -0.12650E-03   -0.10100E-06  5899   0.781E-04    0.713E-04
RMM:  37    -0.800585826578E+03   -0.64120E-04   -0.43380E-07  4851   0.681E-04    0.591E-04
RMM:  38    -0.800585860705E+03   -0.34127E-04   -0.27627E-07  4021   0.624E-04    0.450E-04
RMM:  39    -0.800585889384E+03   -0.28679E-04   -0.32836E-07  4833   0.698E-04    0.364E-04
RMM:  40    -0.800585900657E+03   -0.11273E-04   -0.17515E-07  3977   0.602E-04    0.308E-04
RMM:  41    -0.800585904963E+03   -0.43062E-05   -0.17047E-07  3128   0.522E-04
  25 F= -.80058590E+03 E0= -.80076604E+03  d E =-.316758E+01  mag=    65.4622
       N       E                     dE             d eps       ncg     rms          rms(c)
DAV:   1    -0.800562714914E+03    0.23186E-01   -0.20451E+00 21190   0.306E+00    0.231E-01
RMM:   2    -0.800603215846E+03   -0.40501E-01   -0.42418E-01 16460   0.551E-01    0.129E-01
RMM:   3    -0.800587639870E+03    0.15576E-01   -0.91371E-03 18706   0.999E-02    0.209E-01
RMM:   4    -0.800587325841E+03    0.31403E-03   -0.68036E-04 16701   0.166E-02    0.864E-02
RMM:   5    -0.800587499038E+03   -0.17320E-03   -0.17431E-04 14717   0.880E-03    0.149E-01
