       N       E                     dE             d eps       ncg     rms          rms(c)
DAV:   1     0.178553880132E+05    0.17855E+05   -0.60475E+05  9616   0.139E+03
DAV:   2     0.222939898950E+04   -0.15626E+05   -0.14860E+05  9592   0.522E+02
DAV:   3     0.720685535904E+03   -0.15087E+04   -0.14512E+04 10856   0.177E+02
DAV:   4     0.525001060365E+03   -0.19568E+03   -0.19294E+03 15776   0.435E+01
DAV:   5     0.517460129517E+03   -0.75409E+01   -0.75247E+01 12904   0.902E+00    0.160E+03
RMM:   6    -0.644475315185E+04   -0.69622E+04   -0.93349E+03 13248   0.637E+01    0.130E+03
RMM:   7    -0.226501215806E+05   -0.16205E+05   -0.29826E+04 13755   0.169E+02    0.125E+03
RMM:   8    -0.931545645614E+04    0.13335E+05   -0.14082E+04 11819   0.936E+01    0.977E+02
RMM:   9    -0.755104271274E+04    0.17644E+04   -0.45986E+03 12615   0.534E+01    0.954E+02
RMM:  10    -0.612854199293E+04    0.14225E+04   -0.17839E+04 12624   0.121E+02    0.716E+02
RMM:  11    -0.869102256004E+03    0.52594E+04   -0.11915E+03 11837   0.270E+01    0.536E+02
RMM:  12     0.117069721923E+04    0.20398E+04   -0.31429E+02 10731   0.128E+01    0.458E+02
RMM:  13     0.115495292873E+04   -0.15744E+02   -0.50015E+01 10825   0.467E+00    0.346E+02
RMM:  14     0.114726284762E+04   -0.76901E+01   -0.42519E+00 12924   0.137E+00    0.335E+02
RMM:  15     0.116692957360E+04    0.19667E+02   -0.48103E+00 11056   0.118E+00    0.346E+02
RMM:  16     0.102367445884E+04   -0.14326E+03   -0.19578E+01  9777   0.317E+00    0.322E+02
RMM:  17     0.993895670015E+03   -0.29779E+02   -0.29725E+00 11699   0.934E-01    0.320E+02
RMM:  18     0.105417054412E+04    0.60275E+02   -0.12472E+01  9238   0.374E+00    0.294E+02
RMM:  19     0.101640247336E+04   -0.37768E+02   -0.75361E+01  9088   0.902E+00    0.385E+02
RMM:  20     0.116762503103E+04    0.15122E+03   -0.33280E+01 10051   0.449E+00    0.354E+02
RMM:  21     0.121268284949E+04    0.45058E+02   -0.69304E+00 11004   0.181E+00    0.315E+02
RMM:  22     0.120046683999E+04   -0.12216E+02   -0.10506E+00 10347   0.987E-01    0.325E+02
RMM:  23     0.106568479241E+04   -0.13478E+03   -0.22183E+01  9878   0.393E+00    0.443E+02
RMM:  24     0.116267675403E+04    0.96992E+02   -0.20369E+01  9452   0.446E+00    0.353E+02
RMM:  25     0.125618060427E+04    0.93504E+02   -0.39340E+01  9377   0.598E+00    0.214E+02
RMM:  26     0.124094686411E+04   -0.15234E+02   -0.47340E+00 10215   0.219E+00    0.195E+02
RMM:  27     0.123889069641E+04   -0.20562E+01   -0.37080E+00 10069   0.162E+00    0.166E+02
RMM:  28     0.122695581416E+04   -0.11935E+02   -0.76442E+00  9366   0.250E+00    0.132E+02
RMM:  29     0.120710657274E+04   -0.19849E+02   -0.13887E+01  8959   0.305E+00    0.805E+01
RMM:  30     0.119365334053E+04   -0.13453E+02   -0.13738E+01  9243   0.302E+00    0.381E+01
RMM:  31     0.118089093683E+04   -0.12762E+02   -0.10981E+01  9369   0.266E+00    0.266E+01
RMM:  32     0.117426742781E+04   -0.66235E+01   -0.81915E+00  9683   0.176E+00    0.337E+01
RMM:  33     0.116616924046E+04   -0.80982E+01   -0.45411E+00  9667   0.126E+00    0.245E+01
RMM:  34     0.116088975657E+04   -0.52795E+01   -0.62469E+00  9229   0.152E+00    0.356E+01
RMM:  35     0.115488861528E+04   -0.60011E+01   -0.55839E+00  9564   0.130E+00    0.129E+01
RMM:  36     0.115038980435E+04   -0.44988E+01   -0.57701E+00  9927   0.948E-01    0.143E+01
RMM:  37     0.115016174718E+04   -0.22806E+00   -0.24263E+00  9774   0.665E-01    0.787E+00
RMM:  38     0.114685804577E+04   -0.33037E+01   -0.60663E+00  9449   0.870E-01    0.450E+00
RMM:  39     0.114582097117E+04   -0.10371E+01   -0.19956E+00  9999   0.503E-01    0.822E+00
RMM:  40     0.114567481600E+04   -0.14616E+00   -0.41525E-01  9913   0.261E-01    0.278E+00
RMM:  41     0.114582270689E+04    0.14789E+00   -0.14821E-01  9708   0.229E-01    0.635E+00
RMM:  42     0.114568496995E+04   -0.13774E+00   -0.93911E-02 10003   0.202E-01    0.277E+00
RMM:  43     0.114561484104E+04   -0.70129E-01   -0.36081E-02  9674   0.155E-01    0.241E+00
RMM:  44     0.114495372809E+04   -0.66111E+00   -0.14721E-02  9911   0.893E-02    0.273E+00
RMM:  45     0.114435276307E+04   -0.60097E+00   -0.11663E-02  9874   0.759E-02    0.188E+00
RMM:  46     0.114411759377E+04   -0.23517E+00   -0.40228E-03  9869   0.431E-02    0.116E+00
RMM:  47     0.114407223492E+04   -0.45359E-01   -0.42960E-03  9742   0.376E-02    0.515E-01
RMM:  48     0.114405929991E+04   -0.12935E-01   -0.70800E-04  8851   0.182E-02    0.346E-01
RMM:  49     0.114405172871E+04   -0.75712E-02    0.55026E-04  7826   0.106E-02    0.379E-01
RMM:  50     0.114404506826E+04   -0.66604E-02    0.18283E-03  7449   0.846E-03    0.341E-01
RMM:  51     0.114403970320E+04   -0.53651E-02    0.15705E-02  6734   0.665E-03    0.141E-01
RMM:  52     0.114403390361E+04   -0.57996E-02    0.20756E-03  7605   0.764E-03    0.514E-02
RMM:  53     0.114403057555E+04   -0.33281E-02    0.88072E-03  7195   0.608E-03    0.845E-02
RMM:  54     0.114402900841E+04   -0.15671E-02    0.78359E-03  5833   0.371E-03    0.707E-02
RMM:  55     0.114402884712E+04   -0.16128E-03    0.32542E-03  5602   0.287E-03    0.523E-02
RMM:  56     0.114402872790E+04   -0.11922E-03    0.60520E-03  5577   0.236E-03    0.164E-02
RMM:  57     0.114402854653E+04   -0.18138E-03    0.39783E-03  4879   0.173E-03    0.945E-03
RMM:  58     0.114402848900E+04   -0.57522E-04    0.22507E-04  4716   0.174E-03    0.679E-03
RMM:  59     0.114402845233E+04   -0.36672E-04    0.82459E-04  4708   0.163E-03    0.417E-03
RMM:  60     0.114402846465E+04    0.12319E-04    0.11721E-03  3834   0.138E-03
   1 F= 0.11440285E+04 E0= 0.11440945E+04  d E =0.114403E+04  mag=     0.0002
       N       E                     dE             d eps       ncg     rms          rms(c)
DAV:   1     0.189324057390E+04    0.74921E+03   -0.41505E+04 11560   0.390E+02    0.311E+02
RMM:   2    -0.615327840236E+04   -0.80465E+04   -0.32012E+04 13785   0.160E+02    0.362E+02
RMM:   3    -0.256301054344E+04    0.35903E+04   -0.69957E+03 10596   0.711E+01    0.382E+02
RMM:   4     0.548460443871E+03    0.31115E+04   -0.39589E+02 10324   0.187E+01    0.209E+02
RMM:   5     0.561341839497E+03    0.12881E+02   -0.10542E+02 10968   0.690E+00    0.204E+02
RMM:   6     0.329210751661E+03   -0.23213E+03   -0.63967E+02 10347   0.152E+01    0.128E+02
RMM:   7     0.490181840499E+03    0.16097E+03   -0.49214E+01 10693   0.412E+00    0.120E+02
RMM:   8     0.511627280470E+03    0.21445E+02   -0.92309E+01 10060   0.644E+00    0.728E+01
RMM:   9     0.688844989013E+03    0.17722E+03   -0.16123E+01 10501   0.257E+00    0.916E+01
RMM:  10     0.688034779537E+03   -0.81021E+00   -0.20480E+00 10282   0.124E+00    0.748E+01
RMM:  11     0.675050290499E+03   -0.12984E+02   -0.30599E+00  9597   0.149E+00    0.489E+01
RMM:  12     0.694528447856E+03    0.19478E+02   -0.49942E+00  9855   0.177E+00    0.340E+01
RMM:  13     0.697376923244E+03    0.28485E+01   -0.37203E-01 11628   0.470E-01    0.330E+01
RMM:  14     0.709328802837E+03    0.11952E+02   -0.58898E-01 10025   0.511E-01    0.283E+01
RMM:  15     0.734713268172E+03    0.25384E+02   -0.42543E+00  9678   0.127E+00    0.150E+01
RMM:  16     0.735886390230E+03    0.11731E+01   -0.34401E-01 11207   0.376E-01    0.140E+01
RMM:  17     0.735061042729E+03   -0.82535E+00   -0.30449E-02 10047   0.141E-01    0.146E+01
RMM:  18     0.741225032840E+03    0.61640E+01   -0.66420E-01  9453   0.674E-01    0.101E+01
RMM:  19     0.743727668157E+03    0.25026E+01   -0.46662E-01  9716   0.479E-01    0.804E+00
RMM:  20     0.743974434799E+03    0.24677E+00   -0.38426E-02 11198   0.140E-01    0.760E+00
RMM:  21     0.745306272006E+03    0.13318E+01   -0.95571E-02  9674   0.205E-01    0.654E+00
RMM:  22     0.745321243854E+03    0.14972E-01   -0.16055E-02 10394   0.102E-01    0.624E+00
RMM:  23     0.746729011292E+03    0.14078E+01   -0.75943E-01  9525   0.607E-01    0.261E+00
RMM:  24     0.746747879437E+03    0.18868E-01   -0.35374E-02 11333   0.146E-01    0.197E+00
RMM:  25     0.746736717677E+03   -0.11162E-01   -0.31094E-03 11025   0.404E-02    0.195E+00
RMM:  26     0.746776561210E+03    0.39844E-01   -0.10498E-01  9547   0.219E-01    0.267E+00
RMM:  27     0.746874716116E+03    0.98155E-01   -0.21944E-02  9603   0.118E-01    0.911E-01
RMM:  28     0.746872397024E+03   -0.23191E-02   -0.50845E-03 10075   0.617E-02    0.105E+00
RMM:  29     0.746888122074E+03    0.15725E-01   -0.61304E-03  9310   0.769E-02    0.107E+00
RMM:  30     0.746891333460E+03    0.32114E-02   -0.28885E-03  9533   0.437E-02    0.102E+00
RMM:  31     0.746891624591E+03    0.29113E-03   -0.11678E-03  9820   0.258E-02    0.675E-01
RMM:  32     0.746886551522E+03   -0.50731E-02   -0.87931E-04  9062   0.224E-02    0.513E-01
RMM:  33     0.746883640684E+03   -0.29108E-02   -0.23624E-04  8987   0.125E-02    0.555E-01
RMM:  34     0.746884981124E+03    0.13404E-02   -0.37622E-04  8915   0.168E-02    0.314E-01
RMM:  35     0.746885106363E+03    0.12524E-03   -0.18699E-04  8409   0.112E-02    0.171E-01
RMM:  36     0.746885087861E+03   -0.18502E-04   -0.96283E-05  7763   0.916E-03    0.725E-02
RMM:  37     0.746884837965E+03   -0.24990E-03   -0.46432E-06  6383   0.542E-03    0.568E-02
RMM:  38     0.746884652644E+03   -0.18532E-03    0.17766E-05  5720   0.390E-03    0.397E-02
RMM:  39     0.746884550321E+03   -0.10232E-03    0.43137E-05  5442   0.256E-03    0.292E-02
RMM:  40     0.746884504532E+03   -0.45789E-04    0.63931E-05  5395   0.205E-03    0.202E-02
RMM:  41     0.746884452599E+03   -0.51933E-04    0.84540E-05  4642   0.159E-03    0.238E-02
RMM:  42     0.746884425602E+03   -0.26997E-04    0.11588E-04  4819   0.166E-03    0.129E-02
RMM:  43     0.746884404146E+03   -0.21456E-04    0.16616E-04  4858   0.162E-03    0.521E-03
RMM:  44     0.746884388767E+03   -0.15380E-04    0.24568E-04  3591   0.114E-03    0.777E-03
RMM:  45     0.746884375501E+03   -0.13266E-04    0.37371E-04  3233   0.109E-03    0.719E-03
RMM:  46     0.746884361062E+03   -0.14439E-04    0.34330E-04  3322   0.105E-03    0.226E-03
RMM:  47     0.746884357420E+03   -0.36424E-05    0.31623E-04  3185   0.101E-03    0.216E-03
RMM:  48     0.746884340856E+03   -0.16564E-04    0.39891E-04  2729   0.931E-04    0.155E-03
RMM:  49     0.746884326510E+03   -0.14346E-04    0.21726E-04  2941   0.970E-04    0.105E-03
RMM:  50     0.746884322064E+03   -0.44457E-05    0.24784E-04  2907   0.969E-04    0.137E-03
RMM:  51     0.746884311572E+03   -0.10492E-04    0.35138E-04  3422   0.108E-03    0.159E-03
RMM:  52     0.746884310489E+03   -0.10834E-05    0.47693E-04  2782   0.933E-04    0.100E-03
RMM:  53     0.746884313405E+03    0.29164E-05    0.65633E-04  2665   0.898E-04    0.706E-04
RMM:  54     0.746884318760E+03    0.53546E-05    0.92119E-04  2941   0.930E-04    0.430E-04
RMM:  55     0.746884328952E+03    0.10192E-04    0.13233E-03  2837   0.903E-04    0.391E-04
RMM:  56     0.746884313347E+03   -0.15605E-04    0.10728E-03  2375   0.812E-04    0.497E-04
RMM:  57     0.746884313590E+03    0.24377E-06    0.80101E-04  2337   0.809E-04    0.369E-04
RMM:  58     0.746884321552E+03    0.79612E-05    0.10137E-03  2281   0.782E-04    0.369E-04
RMM:  59     0.746884335708E+03    0.14156E-04    0.14525E-03  2271   0.772E-04    0.582E-04
RMM:  60     0.746884361074E+03    0.25366E-04    0.23499E-03  2249   0.737E-04
   2 F= 0.74688436E+03 E0= 0.74693386E+03  d E =-.397144E+03  mag=     0.0002
       N       E                     dE             d eps       ncg     rms          rms(c)
DAV:   1     0.747700310422E+03    0.81597E+00   -0.13352E+02 11176   0.173E+01    0.588E+00
RMM:   2     0.744692114790E+03   -0.30082E+01   -0.14307E+01  9920   0.407E+00    0.679E+00
RMM:   3     0.740667566231E+03   -0.40245E+01   -0.16221E+00 10057   0.111E+00    0.136E+01
RMM:   4     0.745691754227E+03    0.50242E+01   -0.78369E-01 10147   0.629E-01    0.693E+00
RMM:   5     0.746489226321E+03    0.79747E+00   -0.44728E-01  9967   0.548E-01    0.216E+00
RMM:   6     0.746557653048E+03    0.68427E-01   -0.20279E-01 10138   0.279E-01    0.104E+00
RMM:   7     0.746591121813E+03    0.33469E-01   -0.65976E-02 10032   0.187E-01    0.859E-01
RMM:   8     0.746598286160E+03    0.71643E-02   -0.83005E-03  9731   0.822E-02    0.474E-01
RMM:   9     0.746600664270E+03    0.23781E-02   -0.37180E-03  9756   0.482E-02    0.235E-01
RMM:  10     0.746601413850E+03    0.74958E-03   -0.93062E-04  9428   0.249E-02    0.117E-01
RMM:  11     0.746601452878E+03    0.39028E-04   -0.18020E-04  8404   0.124E-02    0.763E-02
RMM:  12     0.746601480544E+03    0.27667E-04   -0.37693E-05  7381   0.630E-03    0.317E-02
RMM:  13     0.746601476617E+03   -0.39279E-05   -0.59079E-06  5359   0.309E-03
   3 F= 0.74660148E+03 E0= 0.74664706E+03  d E =-.397427E+03  mag=     0.0001
       N       E                     dE             d eps       ncg     rms          rms(c)
DAV:   1     0.674568995800E+03   -0.72032E+02   -0.74360E+03 10488   0.139E+02    0.103E+02
RMM:   2    -0.190181038093E+02   -0.69359E+03   -0.19842E+03 10155   0.453E+01    0.161E+02
RMM:   3    -0.995817975006E+03   -0.97680E+03   -0.11326E+03 10572   0.203E+01    0.239E+02
RMM:   4     0.518543634420E+03    0.15144E+04   -0.85000E+01 10246   0.810E+00    0.805E+01
RMM:   5     0.585964885476E+03    0.67421E+02   -0.53044E+01 10113   0.447E+00    0.550E+01
RMM:   6     0.575827973119E+03   -0.10137E+02   -0.19786E+01 10078   0.342E+00    0.490E+01
RMM:   7     0.572765989103E+03   -0.30620E+01   -0.21388E+01  9954   0.320E+00    0.376E+01
RMM:   8     0.595114579363E+03    0.22349E+02   -0.55473E+00  9824   0.186E+00    0.304E+01
RMM:   9     0.594990090127E+03   -0.12449E+00   -0.27129E-01 10732   0.440E-01    0.283E+01
RMM:  10     0.595397414729E+03    0.40732E+00   -0.63871E-01  9923   0.577E-01    0.241E+01
RMM:  11     0.595427514465E+03    0.30100E-01   -0.81982E-02 10012   0.277E-01    0.206E+01
RMM:  12     0.595762839201E+03    0.33532E+00   -0.20683E-01  9343   0.487E-01    0.896E+00
RMM:  13     0.595873975319E+03    0.11114E+00   -0.58484E-02 10231   0.208E-01    0.544E+00
RMM:  14     0.595912121348E+03    0.38146E-01   -0.27115E-02 10060   0.132E-01    0.604E+00
RMM:  15     0.595987179352E+03    0.75058E-01   -0.21290E-02  9632   0.130E-01    0.289E+00
RMM:  16     0.596017365535E+03    0.30186E-01   -0.52645E-03 10316   0.577E-02    0.256E+00
RMM:  17     0.596047847687E+03    0.30482E-01   -0.42045E-03 10034   0.385E-02    0.205E+00
RMM:  18     0.596095708018E+03    0.47860E-01   -0.18425E-02  9378   0.794E-02    0.888E-01
RMM:  19     0.596106509717E+03    0.10802E-01   -0.12876E-02  9885   0.596E-02    0.558E-01
RMM:  20     0.596107626121E+03    0.11164E-02   -0.56176E-03  9943   0.355E-02    0.389E-01
RMM:  21     0.596107345850E+03   -0.28027E-03   -0.63963E-04  9013   0.132E-02    0.226E-01
RMM:  22     0.596104851609E+03   -0.24942E-02   -0.14838E-03  8883   0.263E-02    0.261E-01
RMM:  23     0.596104147381E+03   -0.70423E-03   -0.21834E-04  7659   0.825E-03    0.150E-01
RMM:  24     0.596103842176E+03   -0.30520E-03   -0.17108E-04  6935   0.758E-03    0.412E-02
RMM:  25     0.596103554911E+03   -0.28727E-03   -0.18649E-05  5872   0.386E-03    0.145E-02
RMM:  26     0.596103146074E+03   -0.40884E-03    0.25866E-06  5386   0.249E-03    0.129E-02
RMM:  27     0.596102830694E+03   -0.31538E-03    0.22264E-06  5220   0.225E-03    0.166E-02
RMM:  28     0.596102679747E+03   -0.15095E-03    0.23240E-05  4821   0.187E-03    0.957E-03
RMM:  29     0.596102587084E+03   -0.92663E-04    0.37593E-05  5021   0.186E-03    0.382E-03
RMM:  30     0.596102542764E+03   -0.44320E-04    0.51936E-05  4734   0.161E-03    0.185E-03
RMM:  31     0.596102522758E+03   -0.20006E-04    0.66469E-05  4198   0.140E-03    0.278E-03
RMM:  32     0.596102510373E+03   -0.12385E-04    0.82979E-05  3787   0.127E-03    0.229E-03
RMM:  33     0.596102494158E+03   -0.16215E-04    0.95534E-05  3809   0.123E-03    0.128E-03
RMM:  34     0.596102484441E+03   -0.97170E-05    0.12918E-04  2877   0.105E-03    0.784E-04
RMM:  35     0.596102479756E+03   -0.46850E-05    0.16787E-04  2680   0.100E-03    0.488E-04
RMM:  36     0.596102473953E+03   -0.58028E-05    0.22271E-04  2797   0.996E-04    0.624E-04
RMM:  37     0.596102472503E+03   -0.14498E-05    0.31173E-04  2673   0.953E-04    0.784E-04
RMM:  38     0.596102473144E+03    0.64122E-06    0.47141E-04  2634   0.954E-04    0.605E-04
RMM:  39     0.596102478653E+03    0.55081E-05    0.77835E-04  2492   0.911E-04    0.377E-04
RMM:  40     0.596102490738E+03    0.12085E-04    0.13840E-03  2415   0.874E-04    0.410E-04
RMM:  41     0.596102467123E+03   -0.23615E-04    0.77936E-04  2388   0.835E-04    0.298E-04
RMM:  42     0.596102476216E+03    0.90934E-05    0.32819E-04  2369   0.855E-04    0.164E-04
RMM:  43     0.596102481313E+03    0.50967E-05    0.70271E-04  2323   0.835E-04    0.140E-04
RMM:  44     0.596102463160E+03   -0.18154E-04    0.30829E-04  2311   0.837E-04    0.395E-04
RMM:  45     0.596102464410E+03    0.12503E-05    0.16340E-04  2276   0.810E-04    0.409E-04
RMM:  46     0.596102465520E+03    0.11099E-05    0.20910E-04  2268   0.810E-04    0.398E-04
RMM:  47     0.596102466776E+03    0.12564E-05    0.26527E-04  2277   0.806E-04    0.393E-04
RMM:  48     0.596102468201E+03    0.14247E-05    0.33214E-04  2273   0.784E-04    0.395E-04
RMM:  49     0.596102469743E+03    0.15425E-05    0.40690E-04  2203   0.753E-04    0.419E-04
RMM:  50     0.596102471072E+03    0.13285E-05    0.48491E-04  2189   0.743E-04    0.451E-04
RMM:  51     0.596102472080E+03    0.10086E-05    0.55717E-04  2180   0.743E-04    0.475E-04
RMM:  52     0.596102472419E+03    0.33830E-06    0.61422E-04  2161   0.727E-04    0.462E-04
RMM:  53     0.596102471677E+03   -0.74133E-06    0.63466E-04  2134   0.713E-04    0.442E-04
RMM:  54     0.596102471651E+03   -0.26310E-07    0.60742E-04  2106   0.697E-04    0.427E-04
RMM:  55     0.596102472471E+03    0.82003E-06    0.65596E-04  2095   0.692E-04    0.455E-04
RMM:  56     0.596102475782E+03    0.33109E-05    0.80392E-04  2070   0.686E-04    0.486E-04
RMM:  57     0.596102485125E+03    0.93430E-05    0.12040E-03  2057   0.673E-04    0.673E-04
RMM:  58     0.596102461009E+03   -0.24116E-04    0.47302E-04  2040   0.652E-04    0.282E-04
RMM:  59     0.596102485357E+03    0.24348E-04    0.26749E-05  2027   0.674E-04    0.678E-04
RMM:  60     0.596102458267E+03   -0.27089E-04    0.29332E-04  2005   0.641E-04
   4 F= 0.59610246E+03 E0= 0.59615243E+03  d E =-.150499E+03  mag=    -0.0003
       N       E                     dE             d eps       ncg     rms          rms(c)
DAV:   1     0.596625086810E+03    0.52260E+00   -0.27594E+03 10272   0.777E+01    0.491E+01
RMM:   2     0.510596512521E+03   -0.86029E+02   -0.36181E+02  9845   0.209E+01    0.396E+01
RMM:   3     0.180844909026E+03   -0.32975E+03   -0.11199E+02 10417   0.768E+00    0.107E+02
RMM:   4     0.559421899943E+03    0.37858E+03   -0.36134E+01  9941   0.467E+00    0.291E+01
RMM:   5     0.564319396801E+03    0.48975E+01   -0.28984E+01 10008   0.379E+00    0.179E+01
RMM:   6     0.573455043275E+03    0.91356E+01   -0.65881E+00 10060   0.196E+00    0.112E+01
RMM:   7     0.575334016369E+03    0.18790E+01   -0.22454E+00 10216   0.105E+00    0.781E+00
RMM:   8     0.576043824821E+03    0.70981E+00   -0.60239E-01  9796   0.600E-01    0.744E+00
RMM:   9     0.576181715734E+03    0.13789E+00   -0.88051E-02  9864   0.239E-01    0.608E+00
RMM:  10     0.576274559916E+03    0.92844E-01   -0.72254E-02  9671   0.241E-01    0.374E+00
RMM:  11     0.576307818528E+03    0.33259E-01   -0.24320E-02  9948   0.162E-01    0.135E+00
RMM:  12     0.576310312727E+03    0.24942E-02   -0.53345E-03 10208   0.652E-02    0.133E+00
RMM:  13     0.576309268028E+03   -0.10447E-02   -0.13331E-03 10182   0.347E-02    0.107E+00
RMM:  14     0.576310739762E+03    0.14717E-02   -0.10433E-03  9515   0.305E-02    0.717E-01
RMM:  15     0.576312163042E+03    0.14233E-02   -0.25886E-04  9641   0.142E-02    0.525E-01
RMM:  16     0.576313388585E+03    0.12255E-02   -0.60545E-04  9302   0.191E-02    0.204E-01
RMM:  17     0.576313613010E+03    0.22443E-03   -0.15359E-04  8261   0.980E-03    0.948E-02
RMM:  18     0.576313611999E+03   -0.10110E-05   -0.11397E-04  7607   0.811E-03    0.151E-02
RMM:  19     0.576313530250E+03   -0.81749E-04   -0.24840E-05  6181   0.390E-03    0.340E-02
RMM:  20     0.576313418085E+03   -0.11217E-03   -0.83197E-06  5344   0.262E-03    0.149E-02
RMM:  21     0.576313295125E+03   -0.12296E-03   -0.94453E-06  5306   0.236E-03    0.849E-03
RMM:  22     0.576313228105E+03   -0.67020E-04   -0.53030E-06  5158   0.207E-03    0.338E-03
RMM:  23     0.576313180363E+03   -0.47742E-04   -0.29890E-06  4831   0.184E-03    0.835E-03
RMM:  24     0.576313168820E+03   -0.11543E-04   -0.12916E-06  3898   0.136E-03    0.136E-03
RMM:  25     0.576313156210E+03   -0.12610E-04   -0.90460E-07  4259   0.136E-03    0.197E-03
RMM:  26     0.576313150339E+03   -0.58706E-05   -0.34511E-07  3592   0.118E-03
   5 F= 0.57631315E+03 E0= 0.57635840E+03  d E =-.170288E+03  mag=    -0.0002
       N       E                     dE             d eps       ncg     rms          rms(c)
DAV:   1     0.576286489101E+03   -0.26667E-01   -0.76237E+00 10872   0.386E+00    0.213E+00
RMM:   2     0.576207569546E+03   -0.78920E-01   -0.59731E-01  9853   0.835E-01    0.151E+00
RMM:   3     0.574941819648E+03   -0.12657E+01   -0.13878E-01 10263   0.292E-01    0.809E+00
RMM:   4     0.576150059497E+03    0.12082E+01   -0.10421E-01  9801   0.247E-01    0.199E+00
RMM:   5     0.576226118562E+03    0.76059E-01   -0.87934E-02 10068   0.208E-01    0.672E-01
RMM:   6     0.576244190891E+03    0.18072E-01   -0.20262E-02  9901   0.987E-02    0.384E-01
RMM:   7     0.576248616064E+03    0.44252E-02   -0.22161E-03  9748   0.372E-02    0.129E-01
RMM:   8     0.576248857824E+03    0.24176E-03   -0.32904E-04  9318   0.153E-02    0.808E-02
RMM:   9     0.576248813479E+03   -0.44345E-04   -0.49522E-05  7681   0.748E-03    0.904E-02
RMM:  10     0.576248862659E+03    0.49180E-04   -0.14361E-05  5773   0.473E-03    0.446E-02
RMM:  11     0.576248882487E+03    0.19828E-04   -0.12052E-05  5743   0.378E-03    0.110E-02
RMM:  12     0.576248884223E+03    0.17360E-05   -0.19165E-06  5301   0.207E-03
   6 F= 0.57624888E+03 E0= 0.57629157E+03  d E =-.170353E+03  mag=    -0.0001
       N       E                     dE             d eps       ncg     rms          rms(c)
DAV:   1     0.568077978334E+03   -0.81709E+01   -0.51568E+02 10672   0.319E+01    0.675E+00
RMM:   2     0.562028904081E+03   -0.60491E+01   -0.51059E+01  9833   0.724E+00    0.741E+00
RMM:   3     0.555404005960E+03   -0.66249E+01   -0.38914E+00 10369   0.183E+00    0.154E+01
RMM:   4     0.562889994812E+03    0.74860E+01   -0.13110E+00  9823   0.866E-01    0.578E+00
RMM:   5     0.564103267187E+03    0.12133E+01   -0.83816E-01 10072   0.632E-01    0.248E+00
RMM:   6     0.564193464449E+03    0.90197E-01   -0.15051E-01 10035   0.330E-01    0.970E-01
RMM:   7     0.564199192921E+03    0.57285E-02   -0.55487E-02 10200   0.179E-01    0.884E-01
RMM:   8     0.564204811593E+03    0.56187E-02   -0.22315E-02  9842   0.121E-01    0.893E-01
RMM:   9     0.564210548844E+03    0.57373E-02   -0.37150E-03 10128   0.541E-02    0.654E-01
RMM:  10     0.564215989417E+03    0.54406E-02   -0.18604E-03  9732   0.330E-02    0.222E-01
RMM:  11     0.564216511316E+03    0.52190E-03   -0.66754E-04  9299   0.193E-02    0.159E-01
RMM:  12     0.564216645948E+03    0.13463E-03   -0.94266E-05  8179   0.764E-03    0.105E-01
RMM:  13     0.564216675841E+03    0.29892E-04   -0.66361E-05  7286   0.706E-03    0.102E-02
RMM:  14     0.564216627744E+03   -0.48097E-04   -0.92289E-06  5574   0.328E-03    0.520E-03
RMM:  15     0.564216565106E+03   -0.62638E-04   -0.50135E-06  5348   0.227E-03    0.451E-03
RMM:  16     0.564216484287E+03   -0.80819E-04   -0.44758E-06  4846   0.179E-03    0.334E-03
RMM:  17     0.564216388705E+03   -0.95582E-04   -0.72610E-06  4790   0.167E-03    0.246E-03
RMM:  18     0.564216349197E+03   -0.39508E-04   -0.24099E-06  3827   0.133E-03    0.122E-03
RMM:  19     0.564216323997E+03   -0.25200E-04   -0.13120E-06  4038   0.124E-03    0.137E-03
RMM:  20     0.564216314450E+03   -0.95470E-05   -0.20571E-07  3256   0.103E-03
   7 F= 0.56421631E+03 E0= 0.56429096E+03  d E =-.120326E+02  mag=    -0.0003
       N       E                     dE             d eps       ncg     rms          rms(c)
DAV:   1     0.604114171783E+03    0.39898E+02   -0.46833E+03 10736   0.103E+02    0.236E+01
RMM:   2     0.454027557903E+03   -0.15009E+03   -0.80703E+02  9874   0.277E+01    0.511E+01
RMM:   3     0.491577043348E+03    0.37549E+02   -0.48910E+01 10030   0.703E+00    0.352E+01
RMM:   4     0.542904221813E+03    0.51327E+02   -0.93348E+00  9861   0.279E+00    0.950E+00
RMM:   5     0.544489550139E+03    0.15853E+01   -0.19967E+00  9965   0.119E+00    0.652E+00
RMM:   6     0.543144857522E+03   -0.13447E+01   -0.18593E+00 10056   0.912E-01    0.883E+00
RMM:   7     0.545125643733E+03    0.19808E+01   -0.11026E+00  9832   0.874E-01    0.497E+00
RMM:   8     0.545213349230E+03    0.87705E-01   -0.26993E-01 10355   0.418E-01    0.465E+00
RMM:   9     0.545303756919E+03    0.90408E-01   -0.98089E-02 10100   0.247E-01    0.305E+00
RMM:  10     0.545355472539E+03    0.51716E-01   -0.42245E-02  9676   0.181E-01    0.142E+00
RMM:  11     0.545361494679E+03    0.60221E-02   -0.95209E-03 10134   0.803E-02    0.109E+00
RMM:  12     0.545366032669E+03    0.45380E-02   -0.75925E-03  9551   0.756E-02    0.602E-01
RMM:  13     0.545367326969E+03    0.12943E-02   -0.21559E-03 10214   0.370E-02    0.419E-01
RMM:  14     0.545367595558E+03    0.26859E-03   -0.70819E-04 10267   0.220E-02    0.228E-01
RMM:  15     0.545367657587E+03    0.62029E-04   -0.65519E-04  9071   0.220E-02    0.731E-02
RMM:  16     0.545367461073E+03   -0.19651E-03   -0.21442E-04  8894   0.122E-02    0.145E-02
RMM:  17     0.545367211946E+03   -0.24913E-03   -0.24839E-05  6170   0.466E-03    0.222E-02
RMM:  18     0.545367077822E+03   -0.13412E-03   -0.98391E-06  5431   0.324E-03    0.100E-02
RMM:  19     0.545366989765E+03   -0.88057E-04   -0.44393E-06  5037   0.209E-03    0.623E-03
RMM:  20     0.545366827695E+03   -0.16207E-03   -0.79541E-06  5303   0.214E-03    0.116E-02
RMM:  21     0.545366732994E+03   -0.94701E-04   -0.48831E-06  4718   0.167E-03    0.661E-03
RMM:  22     0.545366695471E+03   -0.37523E-04   -0.23172E-06  4538   0.148E-03    0.177E-03
RMM:  23     0.545366682786E+03   -0.12685E-04   -0.91927E-07  3820   0.124E-03    0.559E-04
RMM:  24     0.545366675654E+03   -0.71325E-05   -0.51787E-07  3723   0.114E-03
   8 F= 0.54536668E+03 E0= 0.54542575E+03  d E =-.308822E+02  mag=    -0.0000
       N       E                     dE             d eps       ncg     rms          rms(c)
DAV:   1     0.547369610434E+03    0.20029E+01   -0.40849E+02 10656   0.279E+01    0.524E+00
RMM:   2     0.541271148249E+03   -0.60985E+01   -0.39833E+01  9829   0.626E+00    0.798E+00
RMM:   3     0.540497921770E+03   -0.77323E+00   -0.24608E+00 10292   0.149E+00    0.111E+01
RMM:   4     0.544054827733E+03    0.35569E+01   -0.77591E-01  9810   0.731E-01    0.357E+00
RMM:   5     0.544086724097E+03    0.31896E-01   -0.23995E-01 10394   0.346E-01    0.309E+00
RMM:   6     0.544282483427E+03    0.19576E+00   -0.12338E-01  9753   0.295E-01    0.893E-01
RMM:   7     0.544273597690E+03   -0.88857E-02   -0.42572E-02 10264   0.150E-01    0.119E+00
RMM:   8     0.544293000189E+03    0.19402E-01   -0.20801E-02  9984   0.108E-01    0.971E-01
RMM:   9     0.544301135127E+03    0.81349E-02   -0.25976E-03 10165   0.460E-02    0.382E-01
RMM:  10     0.544302322996E+03    0.11879E-02   -0.26007E-03  9579   0.399E-02    0.116E-01
RMM:  11     0.544302421661E+03    0.98665E-04   -0.22593E-04  9211   0.132E-02    0.650E-02
RMM:  12     0.544302406437E+03   -0.15225E-04   -0.67130E-05  7944   0.813E-03    0.316E-02
RMM:  13     0.544302376893E+03   -0.29543E-04   -0.21257E-05  6584   0.430E-03    0.180E-02
RMM:  14     0.544302321687E+03   -0.55206E-04   -0.96006E-06  5493   0.303E-03    0.893E-03
RMM:  15     0.544302270527E+03   -0.51160E-04   -0.45710E-06  5117   0.198E-03    0.484E-03
RMM:  16     0.544302206852E+03   -0.63674E-04   -0.52974E-06  5039   0.181E-03    0.102E-02
RMM:  17     0.544302178444E+03   -0.28409E-04   -0.21721E-06  4026   0.134E-03    0.286E-03
RMM:  18     0.544302132783E+03   -0.45660E-04   -0.37901E-06  4890   0.152E-03    0.221E-03
RMM:  19     0.544302120463E+03   -0.12320E-04   -0.11947E-06  3366   0.111E-03    0.738E-04
RMM:  20     0.544302112070E+03   -0.83938E-05   -0.74520E-07  3713   0.111E-03
   9 F= 0.54430211E+03 E0= 0.54437958E+03  d E =-.319468E+02  mag=    -0.0001
       N       E                     dE             d eps       ncg     rms          rms(c)
DAV:   1     0.554950695749E+03    0.10649E+02   -0.20989E+03 10816   0.673E+01    0.137E+01
RMM:   2     0.518480667998E+03   -0.36470E+02   -0.27282E+02  9821   0.166E+01    0.142E+01
RMM:   3     0.497907831230E+03   -0.20573E+02   -0.20354E+01 10427   0.436E+00    0.274E+01
RMM:   4     0.524782542275E+03    0.26875E+02   -0.55191E+00 10362   0.175E+00    0.123E+01
RMM:   5     0.529202449610E+03    0.44199E+01   -0.20322E+00  9868   0.103E+00    0.593E+00
RMM:   6     0.529451048561E+03    0.24860E+00   -0.15629E+00 10150   0.926E-01    0.477E+00
RMM:   7     0.529922467199E+03    0.47142E+00   -0.61009E-01 10020   0.622E-01    0.144E+00
RMM:   8     0.529968798576E+03    0.46331E-01   -0.70338E-02  9667   0.236E-01    0.136E+00
RMM:   9     0.529971951017E+03    0.31524E-02   -0.20168E-02  9816   0.148E-01    0.111E+00
RMM:  10     0.529983446304E+03    0.11495E-01   -0.37476E-03 10220   0.577E-02    0.424E-01
RMM:  11     0.529985075452E+03    0.16291E-02   -0.42649E-03  9822   0.521E-02    0.230E-01
RMM:  12     0.529985604624E+03    0.52917E-03   -0.11593E-03  9580   0.312E-02    0.155E-01
RMM:  13     0.529985629227E+03    0.24603E-04   -0.14094E-04  8953   0.105E-02    0.102E-01
RMM:  14     0.529985541754E+03   -0.87474E-04   -0.12981E-04  8153   0.104E-02    0.506E-02
RMM:  15     0.529985405591E+03   -0.13616E-03   -0.45288E-05  7105   0.588E-03    0.180E-02
RMM:  16     0.529985226826E+03   -0.17877E-03   -0.22393E-05  5891   0.397E-03    0.140E-02
RMM:  17     0.529985004594E+03   -0.22223E-03   -0.18065E-05  5582   0.285E-03    0.100E-02
RMM:  18     0.529984854620E+03   -0.14997E-03   -0.11658E-05  5276   0.225E-03    0.350E-03
RMM:  19     0.529984754557E+03   -0.10006E-03   -0.72609E-06  4985   0.187E-03    0.225E-03
RMM:  20     0.529984695098E+03   -0.59458E-04   -0.43409E-06  4607   0.160E-03    0.174E-03
RMM:  21     0.529984660558E+03   -0.34541E-04   -0.22150E-06  4011   0.133E-03    0.182E-03
RMM:  22     0.529984642206E+03   -0.18352E-04   -0.14750E-06  3895   0.126E-03    0.102E-03
RMM:  23     0.529984630948E+03   -0.11259E-04   -0.12547E-06  3857   0.122E-03    0.590E-04
RMM:  24     0.529984627742E+03   -0.32056E-05   -0.80933E-07  3106   0.107E-03
  10 F= 0.52998463E+03 E0= 0.53005973E+03  d E =-.143175E+02  mag=    -0.0002
       N       E                     dE             d eps       ncg     rms          rms(c)
DAV:   1     0.958874600610E+03    0.42889E+03   -0.20003E+04 10816   0.239E+02    0.480E+01
RMM:   2    -0.360775405370E+03   -0.13197E+04   -0.68453E+03 10436   0.757E+01    0.205E+02
RMM:   3     0.459952564845E+03    0.82073E+03   -0.27445E+02  9929   0.180E+01    0.342E+01
RMM:   4     0.446439131163E+03   -0.13513E+02   -0.29502E+01 10135   0.533E+00    0.353E+01
RMM:   5     0.496075281843E+03    0.49636E+02   -0.68070E+00 10223   0.217E+00    0.148E+01
RMM:   6     0.488492845653E+03   -0.75824E+01   -0.69574E+00 10019   0.185E+00    0.178E+01
RMM:   7     0.498460505523E+03    0.99677E+01   -0.30708E+00 10077   0.133E+00    0.995E+00
RMM:   8     0.498261555436E+03   -0.19895E+00   -0.16031E+00 10399   0.903E-01    0.964E+00
RMM:   9     0.499708892038E+03    0.14473E+01   -0.72834E-01  9841   0.706E-01    0.801E+00
RMM:  10     0.499755047464E+03    0.46155E-01   -0.97220E-02 10358   0.319E-01    0.747E+00
RMM:  11     0.499632233115E+03   -0.12281E+00   -0.42673E-02  9702   0.181E-01    0.542E+00
RMM:  12     0.499740027977E+03    0.10779E+00   -0.29677E-02  9984   0.146E-01    0.439E+00
RMM:  13     0.499777859190E+03    0.37831E-01   -0.62407E-03 10584   0.620E-02    0.396E+00
RMM:  14     0.499792397411E+03    0.14538E-01   -0.20902E-03  9919   0.431E-02    0.302E+00
RMM:  15     0.499800727266E+03    0.83299E-02   -0.39149E-03  9253   0.586E-02    0.204E+00
RMM:  16     0.499819883261E+03    0.19156E-01   -0.11399E-02  9233   0.101E-01    0.578E-01
RMM:  17     0.499821181102E+03    0.12978E-02   -0.15287E-03 10631   0.343E-02    0.272E-01
RMM:  18     0.499821706980E+03    0.52588E-03   -0.11272E-03  9713   0.271E-02    0.901E-02
RMM:  19     0.499821262040E+03   -0.44494E-03   -0.12214E-04  8241   0.100E-02    0.413E-02
RMM:  20     0.499820606205E+03   -0.65583E-03   -0.10605E-04  6342   0.563E-03    0.424E-02
RMM:  21     0.499819606670E+03   -0.99954E-03   -0.14424E-04  6202   0.512E-03    0.224E-02
RMM:  22     0.499819318855E+03   -0.28781E-03   -0.34876E-05  5597   0.309E-03    0.124E-02
RMM:  23     0.499819097102E+03   -0.22175E-03   -0.18670E-05  5398   0.273E-03    0.756E-03
RMM:  24     0.499818951541E+03   -0.14556E-03   -0.70480E-06  5125   0.215E-03    0.107E-02
RMM:  25     0.499818870254E+03   -0.81287E-04   -0.35083E-06  5041   0.190E-03    0.488E-03
RMM:  26     0.499818810758E+03   -0.59496E-04   -0.28345E-06  4321   0.152E-03    0.144E-03
RMM:  27     0.499818778181E+03   -0.32577E-04   -0.15904E-06  3595   0.126E-03    0.247E-03
RMM:  28     0.499818751817E+03   -0.26364E-04   -0.76082E-07  3269   0.114E-03    0.184E-03
RMM:  29     0.499818730601E+03   -0.21216E-04   -0.21150E-07  3060   0.110E-03    0.119E-03
RMM:  30     0.499818711928E+03   -0.18673E-04    0.65512E-08  3010   0.106E-03    0.965E-04
RMM:  31     0.499818697750E+03   -0.14178E-04    0.33461E-07  2829   0.104E-03    0.710E-04
RMM:  32     0.499818691738E+03   -0.60126E-05    0.96670E-07  2727   0.985E-04
  11 F= 0.49981869E+03 E0= 0.49983695E+03  d E =-.444834E+02  mag=    -0.0010
       N       E                     dE             d eps       ncg     rms          rms(c)
DAV:   1     0.214559987339E+04    0.16458E+04   -0.58945E+04 11192   0.376E+02    0.106E+02
RMM:   2    -0.505344245614E+04   -0.71990E+04   -0.33604E+04 13622   0.169E+02    0.486E+02
RMM:   3    -0.480669973592E+03    0.45728E+04   -0.26050E+03 10842   0.461E+01    0.225E+02
RMM:   4     0.467080911136E+03    0.94775E+03   -0.36304E+02 10402   0.149E+01    0.605E+01
RMM:   5     0.464147697704E+03   -0.29332E+01   -0.84134E+01 11024   0.574E+00    0.537E+01
RMM:   6     0.477149857718E+03    0.13002E+02   -0.42390E+01 11036   0.291E+00    0.409E+01
RMM:   7     0.503718986213E+03    0.26569E+02   -0.22382E+01 10484   0.309E+00    0.265E+01
RMM:   8     0.483350755387E+03   -0.20368E+02   -0.27686E+01 10222   0.261E+00    0.254E+01
RMM:   9     0.496275875920E+03    0.12925E+02   -0.22226E+01 10415   0.136E+00    0.208E+01
RMM:  10     0.497370611709E+03    0.10947E+01   -0.69465E+00 10781   0.818E-01    0.200E+01
RMM:  11     0.498932023117E+03    0.15614E+01   -0.97839E+00 10083   0.864E-01    0.179E+01
RMM:  12     0.501055108697E+03    0.21231E+01   -0.20666E+00 10238   0.578E-01    0.155E+01
RMM:  13     0.499870758383E+03   -0.11844E+01   -0.70316E+00 11176   0.312E-01    0.154E+01
RMM:  14     0.500111218254E+03    0.24046E+00   -0.20069E+00 10260   0.253E-01    0.141E+01
RMM:  15     0.500113688956E+03    0.24707E-02   -0.19420E+00  9913   0.325E-01    0.127E+01
RMM:  16     0.499323081132E+03   -0.79061E+00   -0.10790E+01  9958   0.511E-01    0.103E+01
RMM:  17     0.496893071747E+03   -0.24300E+01   -0.23081E+01 11120   0.414E-01    0.954E+00
RMM:  18     0.497604527364E+03    0.71146E+00   -0.17538E+00 10945   0.188E-01    0.864E+00
RMM:  19     0.497578578651E+03   -0.25949E-01   -0.25524E-01 10183   0.125E-01    0.724E+00
RMM:  20     0.497042005696E+03   -0.53657E+00   -0.32702E+00 10956   0.928E-02    0.675E+00
RMM:  21     0.496976868037E+03   -0.65138E-01   -0.44301E-01 10500   0.652E-02    0.627E+00
RMM:  22     0.496572564195E+03   -0.40430E+00   -0.13744E-01  9866   0.486E-02    0.632E+00
RMM:  23     0.496218215613E+03   -0.35435E+00   -0.18247E+00  8547   0.334E-02    0.617E+00
RMM:  24     0.496229522584E+03    0.11307E-01   -0.66517E-02  9912   0.683E-02    0.521E+00
RMM:  25     0.496230421161E+03    0.89858E-03   -0.63194E-03  9902   0.214E-02    0.524E+00
RMM:  26     0.496243866897E+03    0.13446E-01   -0.16689E-02  9525   0.104E-01    0.327E+00
RMM:  27     0.496243218258E+03   -0.64864E-03   -0.10669E-02  9984   0.770E-02    0.264E+00
RMM:  28     0.496249833280E+03    0.66150E-02   -0.16041E-03 10627   0.345E-02    0.225E+00
RMM:  29     0.496246772156E+03   -0.30611E-02   -0.12043E-02  9639   0.739E-02    0.822E-01
RMM:  30     0.496239486709E+03   -0.72854E-02   -0.21766E-03 10247   0.368E-02    0.816E-01
RMM:  31     0.496241028415E+03    0.15417E-02   -0.46620E-05  9167   0.176E-02    0.659E-01
RMM:  32     0.496240674836E+03   -0.35358E-03    0.40179E-04  9136   0.249E-02    0.495E-01
RMM:  33     0.496239754471E+03   -0.92037E-03    0.14493E-04  9108   0.176E-02    0.348E-01
RMM:  34     0.496236986611E+03   -0.27679E-02    0.18501E-04  9244   0.153E-02    0.330E-01
RMM:  35     0.496234927840E+03   -0.20588E-02    0.59743E-04  8356   0.113E-02    0.299E-01
RMM:  36     0.496234273775E+03   -0.65407E-03    0.85072E-04  7708   0.117E-02    0.218E-01
RMM:  37     0.496233968105E+03   -0.30567E-03    0.92264E-04  6134   0.481E-03    0.217E-01
RMM:  38     0.496233313690E+03   -0.65441E-03    0.46967E-04  5466   0.365E-03    0.221E-01
RMM:  39     0.496231817881E+03   -0.14958E-02    0.31958E-04  6528   0.594E-03    0.225E-01
RMM:  40     0.496230237938E+03   -0.15799E-02    0.39460E-04  6330   0.564E-03    0.219E-01
RMM:  41     0.496229127456E+03   -0.11105E-02    0.47131E-04  6942   0.648E-03    0.210E-01
RMM:  42     0.496228452180E+03   -0.67528E-03    0.60832E-04  5557   0.315E-03    0.212E-01
RMM:  43     0.496227900197E+03   -0.55198E-03    0.77328E-04  5446   0.257E-03    0.207E-01
RMM:  44     0.496227597393E+03   -0.30280E-03    0.11257E-03  4875   0.172E-03    0.205E-01
RMM:  45     0.496227406618E+03   -0.19078E-03    0.94541E-04  4800   0.158E-03    0.200E-01
RMM:  46     0.496227384304E+03   -0.22314E-04    0.79412E-04  3880   0.125E-03    0.198E-01
RMM:  47     0.496227460952E+03    0.76648E-04    0.12178E-03  5488   0.227E-03    0.204E-01
RMM:  48     0.496227467297E+03    0.63446E-05    0.13088E-03  3777   0.128E-03    0.203E-01
RMM:  49     0.496227564810E+03    0.97514E-04    0.82814E-04  3572   0.122E-03    0.202E-01
RMM:  50     0.496227610576E+03    0.45766E-04    0.79556E-04  3143   0.112E-03    0.201E-01
RMM:  51     0.496227696148E+03    0.85572E-04    0.10121E-03  3412   0.114E-03    0.198E-01
RMM:  52     0.496227840902E+03    0.14475E-03    0.14165E-03  4879   0.156E-03    0.189E-01
RMM:  53     0.496227906031E+03    0.65129E-04    0.21119E-03  3492   0.108E-03    0.186E-01
RMM:  54     0.496227934148E+03    0.28118E-04    0.24207E-03  3799   0.111E-03    0.182E-01
RMM:  55     0.496228017245E+03    0.83097E-04    0.13841E-03  4757   0.133E-03    0.176E-01
RMM:  56     0.496228028887E+03    0.11641E-04    0.23282E-03  4708   0.142E-03    0.168E-01
RMM:  57     0.496228197992E+03    0.16911E-03    0.17529E-03  5300   0.157E-03    0.163E-01
RMM:  58     0.496228193902E+03   -0.40897E-05    0.17570E-03  5375   0.231E-03    0.148E-01
RMM:  59     0.496228127449E+03   -0.66453E-04    0.22453E-03  6040   0.407E-03    0.112E-01
RMM:  60     0.496227856512E+03   -0.27094E-03    0.22588E-03  5550   0.303E-03
  12 F= 0.49622786E+03 E0= 0.49627369E+03  d E =-.480743E+02  mag=    -0.1315
       N       E                     dE             d eps       ncg     rms          rms(c)
DAV:   1     0.788954801787E+03    0.29273E+03   -0.14924E+04 10536   0.200E+02    0.296E+01
RMM:   2     0.915919709197E+02   -0.69736E+03   -0.38399E+03 10057   0.595E+01    0.155E+02
RMM:   3     0.465551684347E+03    0.37396E+03   -0.18212E+02 10016   0.138E+01    0.270E+01
RMM:   4     0.440834792612E+03   -0.24717E+02   -0.31181E+01 10454   0.488E+00    0.421E+01
RMM:   5     0.474955410023E+03    0.34121E+02   -0.50791E+00 10113   0.189E+00    0.270E+01
RMM:   6     0.485451026416E+03    0.10496E+02   -0.42180E+00 10155   0.140E+00    0.159E+01
RMM:   7     0.487179867548E+03    0.17288E+01   -0.35382E+00  9933   0.150E+00    0.128E+01
RMM:   8     0.487184566375E+03    0.46988E-02   -0.39010E+00  9978   0.158E+00    0.835E+00
RMM:   9     0.489148780684E+03    0.19642E+01   -0.12957E+00 10129   0.919E-01    0.351E+00
RMM:  10     0.489370847107E+03    0.22207E+00   -0.14242E-01  9956   0.343E-01    0.222E+00
RMM:  11     0.489418833100E+03    0.47986E-01   -0.63863E-02  9939   0.214E-01    0.113E+00
RMM:  12     0.489427478683E+03    0.86456E-02   -0.23155E-02  9865   0.135E-01    0.102E+00
RMM:  13     0.489430396952E+03    0.29183E-02   -0.86756E-03 10324   0.838E-02    0.831E-01
RMM:  14     0.489431680260E+03    0.12833E-02   -0.13481E-03 10339   0.361E-02    0.607E-01
RMM:  15     0.489432761016E+03    0.10808E-02   -0.95454E-04  9779   0.236E-02    0.490E-01
RMM:  16     0.489433054574E+03    0.29356E-03   -0.35026E-04  9203   0.126E-02    0.423E-01
RMM:  17     0.489432332242E+03   -0.72233E-03   -0.34838E-04  8050   0.112E-02    0.292E-01
RMM:  18     0.489431952921E+03   -0.37932E-03   -0.26090E-04  7200   0.877E-03    0.203E-01
RMM:  19     0.489431576106E+03   -0.37681E-03   -0.85817E-05  7064   0.762E-03    0.136E-01
RMM:  20     0.489430895748E+03   -0.68036E-03   -0.26937E-04  7158   0.871E-03    0.233E-02
RMM:  21     0.489430740924E+03   -0.15482E-03    0.15917E-04  5850   0.399E-03    0.157E-02
RMM:  22     0.489430560235E+03   -0.18069E-03    0.24074E-04  5536   0.327E-03    0.124E-02
RMM:  23     0.489430407391E+03   -0.15284E-03    0.32498E-04  5352   0.230E-03    0.179E-02
RMM:  24     0.489430273333E+03   -0.13406E-03    0.44564E-04  4450   0.154E-03    0.156E-02
RMM:  25     0.489430022598E+03   -0.25074E-03    0.57094E-04  4899   0.169E-03    0.991E-03
RMM:  26     0.489429886341E+03   -0.13626E-03    0.77706E-04  4338   0.140E-03    0.615E-03
RMM:  27     0.489429748324E+03   -0.13802E-03    0.10301E-03  4589   0.147E-03    0.244E-03
RMM:  28     0.489429692693E+03   -0.55631E-04    0.14758E-03  3677   0.118E-03    0.274E-03
RMM:  29     0.489429625306E+03   -0.67387E-04    0.89880E-04  4420   0.131E-03    0.269E-03
RMM:  30     0.489429618364E+03   -0.69423E-05    0.14671E-03  3724   0.120E-03    0.256E-03
RMM:  31     0.489429588110E+03   -0.30254E-04    0.16372E-03  3491   0.107E-03    0.256E-03
RMM:  32     0.489429598032E+03    0.99225E-05    0.12715E-03  3003   0.979E-04    0.216E-03
RMM:  33     0.489429638056E+03    0.40024E-04    0.35901E-03  2776   0.880E-04    0.181E-03
RMM:  34     0.489429639272E+03    0.12168E-05    0.48735E-03  2399   0.734E-04    0.186E-03
RMM:  35     0.489429619928E+03   -0.19345E-04    0.33550E-03  2522   0.789E-04    0.170E-03
RMM:  36     0.489429608117E+03   -0.11811E-04    0.25100E-03  2418   0.766E-04    0.129E-03
RMM:  37     0.489429616542E+03    0.84245E-05    0.38178E-03  2419   0.790E-04    0.124E-03
RMM:  38     0.489429604959E+03   -0.11582E-04    0.44501E-03  2385   0.743E-04    0.846E-04
RMM:  39     0.489429613156E+03    0.81963E-05    0.43869E-03  2296   0.754E-04    0.129E-03
RMM:  40     0.489429582552E+03   -0.30604E-04    0.37669E-03  2252   0.708E-04    0.697E-04
RMM:  41     0.489429628370E+03    0.45818E-04    0.12488E-03  2270   0.792E-04    0.122E-03
RMM:  42     0.489429581300E+03   -0.47070E-04    0.34197E-03  2183   0.684E-04    0.689E-04
RMM:  43     0.489429577991E+03   -0.33088E-05    0.16372E-03  2241   0.767E-04    0.677E-04
RMM:  44     0.489429584016E+03    0.60247E-05    0.17002E-03  2230   0.753E-04    0.705E-04
RMM:  45     0.489429625165E+03    0.41148E-04    0.32607E-03  2287   0.755E-04    0.141E-03
RMM:  46     0.489429599715E+03   -0.25450E-04    0.42587E-03  2122   0.638E-04    0.846E-04
RMM:  47     0.489429571804E+03   -0.27911E-04    0.15801E-03  2193   0.705E-04    0.681E-04
RMM:  48     0.489429572603E+03    0.79931E-06    0.76520E-04  2062   0.715E-04    0.615E-04
RMM:  49     0.489429584633E+03    0.12030E-04    0.23987E-03  2054   0.697E-04    0.536E-04
RMM:  50     0.489429553134E+03   -0.31499E-04    0.16852E-03  2008   0.671E-04    0.739E-04
RMM:  51     0.489429580650E+03    0.27516E-04    0.65746E-05  1988   0.730E-04    0.585E-04
RMM:  52     0.489429554775E+03   -0.25875E-04    0.15475E-03  1965   0.654E-04    0.656E-04
RMM:  53     0.489429558940E+03    0.41649E-05    0.30198E-04  2013   0.706E-04    0.625E-04
RMM:  54     0.489429571417E+03    0.12478E-04    0.10942E-03  1995   0.686E-04    0.675E-04
RMM:  55     0.489429638175E+03    0.66758E-04    0.19873E-04  1892   0.688E-04    0.142E-03
RMM:  56     0.489429559341E+03   -0.78834E-04    0.42095E-03  1954   0.550E-04    0.636E-04
RMM:  57     0.489429571098E+03    0.11757E-04    0.70796E-04  1958   0.696E-04    0.733E-04
RMM:  58     0.489429603397E+03    0.32299E-04    0.27243E-03  1847   0.660E-04    0.105E-03
RMM:  59     0.489429567697E+03   -0.35701E-04    0.25188E-03  1863   0.609E-04    0.541E-04
RMM:  60     0.489429586660E+03    0.18964E-04    0.17902E-03  1813   0.650E-04
  13 F= 0.48942959E+03 E0= 0.48942714E+03  d E =-.548725E+02  mag=     0.0007
       N       E                     dE             d eps       ncg     rms          rms(c)
DAV:   1     0.503816578464E+03    0.14387E+02   -0.22359E+03 10616   0.680E+01    0.969E+00
RMM:   2     0.474919588246E+03   -0.28897E+02   -0.27790E+02  9814   0.159E+01    0.848E+00
RMM:   3     0.456123531924E+03   -0.18796E+02   -0.21437E+01 10352   0.411E+00    0.214E+01
RMM:   4     0.476851347149E+03    0.20728E+02   -0.25973E+00 10126   0.148E+00    0.570E+00
RMM:   5     0.476313857100E+03   -0.53749E+00   -0.10630E+00 10154   0.743E-01    0.679E+00
RMM:   6     0.477197574143E+03    0.88372E+00   -0.43122E-01  9978   0.526E-01    0.425E+00
RMM:   7     0.477300156183E+03    0.10258E+00   -0.43579E-01  9998   0.511E-01    0.341E+00
RMM:   8     0.477447384523E+03    0.14723E+00   -0.16031E-01  9728   0.344E-01    0.222E+00
RMM:   9     0.477484592035E+03    0.37208E-01   -0.18575E-02  9963   0.127E-01    0.142E+00
RMM:  10     0.477501750316E+03    0.17158E-01   -0.53104E-03 10005   0.732E-02    0.311E-01
RMM:  11     0.477504311355E+03    0.25610E-02   -0.73829E-03  9966   0.638E-02    0.267E-01
RMM:  12     0.477505420938E+03    0.11096E-02   -0.54045E-04  9938   0.249E-02    0.611E-02
RMM:  13     0.477505386349E+03   -0.34589E-04    0.14712E-03  8771   0.118E-02    0.750E-02
RMM:  14     0.477505322298E+03   -0.64051E-04    0.12978E-03  6564   0.577E-03    0.454E-02
RMM:  15     0.477505223288E+03   -0.99010E-04    0.75776E-04  6038   0.439E-03    0.205E-02
RMM:  16     0.477505110610E+03   -0.11268E-03    0.10049E-03  5579   0.300E-03    0.962E-03
RMM:  17     0.477504936646E+03   -0.17396E-03    0.20571E-03  5713   0.318E-03    0.155E-02
RMM:  18     0.477504828756E+03   -0.10789E-03    0.19123E-03  5203   0.215E-03    0.710E-03
RMM:  19     0.477505020588E+03    0.19183E-03    0.42798E-03  4726   0.167E-03    0.451E-03
RMM:  20     0.477506430880E+03    0.14103E-02    0.23053E-03  3714   0.133E-03    0.108E-02
RMM:  21     0.477504732904E+03   -0.16980E-02    0.35662E-02  3796  -0.625E-06    0.225E-03
RMM:  22     0.477504712801E+03   -0.20103E-04    0.17655E-03  4389   0.136E-03    0.110E-03
RMM:  23     0.477504687699E+03   -0.25102E-04    0.17588E-03  3509   0.115E-03    0.903E-04
RMM:  24     0.477504685679E+03   -0.20198E-05    0.13399E-03  3352   0.109E-03    0.214E-03
RMM:  25     0.477504638231E+03   -0.47448E-04    0.20366E-03  3199   0.102E-03    0.672E-04
RMM:  26     0.477504633579E+03   -0.46513E-05    0.41750E-04  3003   0.105E-03    0.958E-04
RMM:  27     0.477504631545E+03   -0.20345E-05    0.48179E-04  2922   0.103E-03    0.292E-04
RMM:  28     0.477504633023E+03    0.14785E-05    0.61883E-04  2549   0.926E-04    0.300E-04
RMM:  29     0.477504635314E+03    0.22901E-05    0.78424E-04  2477   0.878E-04    0.143E-04
RMM:  30     0.477504640961E+03    0.56471E-05    0.89836E-04  2445   0.841E-04    0.217E-04
RMM:  31     0.477504655060E+03    0.14099E-04    0.15278E-03  2412   0.802E-04    0.182E-04
RMM:  32     0.477504726288E+03    0.71228E-04    0.30939E-03  2357   0.760E-04    0.980E-04
RMM:  33     0.477504988966E+03    0.26268E-03    0.27846E-03  2311   0.727E-04    0.414E-03
RMM:  34     0.477504680598E+03   -0.30837E-03    0.12100E-02  2272   0.337E-04    0.470E-04
RMM:  35     0.477504709371E+03    0.28773E-04    0.53790E-03  2239   0.725E-04    0.847E-04
RMM:  36     0.477504712775E+03    0.34035E-05    0.57308E-03  2214   0.671E-04    0.901E-04
RMM:  37     0.477504670832E+03   -0.41943E-04    0.44580E-03  2191   0.673E-04    0.368E-04
RMM:  38     0.477504678893E+03    0.80611E-05    0.21047E-03  2171   0.748E-04    0.516E-04
RMM:  39     0.477504692427E+03    0.13534E-04    0.53122E-03  2136   0.697E-04    0.108E-03
RMM:  40     0.477504741079E+03    0.48652E-04    0.86418E-03  2096   0.634E-04    0.134E-03
RMM:  41     0.477504764363E+03    0.23283E-04    0.52887E-03  2068   0.619E-04    0.269E-03
RMM:  42     0.477504644548E+03   -0.11981E-03    0.75076E-03  2049   0.487E-04    0.240E-04
RMM:  43     0.477504656320E+03    0.11773E-04    0.19445E-03  2032   0.702E-04    0.211E-04
RMM:  44     0.477504636988E+03   -0.19332E-04    0.15147E-03  1970   0.672E-04    0.273E-04
RMM:  45     0.477504637931E+03    0.94273E-06    0.12835E-03  1934   0.686E-04    0.259E-04
RMM:  46     0.477504640157E+03    0.22263E-05    0.13942E-03  1895   0.680E-04    0.251E-04
RMM:  47     0.477504650263E+03    0.10106E-04    0.19353E-03  1889   0.665E-04    0.340E-04
RMM:  48     0.477504658160E+03    0.78967E-05    0.26772E-03  1878   0.645E-04    0.510E-04
RMM:  49     0.477504777641E+03    0.11948E-03    0.50795E-03  1835   0.620E-04    0.191E-03
RMM:  50     0.477504701569E+03   -0.76072E-04    0.84023E-03  1845   0.419E-04    0.123E-03
RMM:  51     0.477504670022E+03   -0.31547E-04    0.50329E-03  1819   0.530E-04    0.546E-04
RMM:  52     0.477504648793E+03   -0.21230E-04    0.23947E-03  1786   0.611E-04    0.253E-04
RMM:  53     0.477504670628E+03    0.21835E-04    0.18080E-03  1746   0.636E-04    0.496E-04
RMM:  54     0.477504719652E+03    0.49024E-04    0.31260E-03  1721   0.591E-04    0.102E-03
RMM:  55     0.477504646493E+03   -0.73159E-04    0.50654E-03  1700   0.505E-04    0.204E-04
RMM:  56     0.477504797921E+03    0.15143E-03    0.26093E-03  1694   0.620E-04    0.186E-03
RMM:  57     0.477504660166E+03   -0.13776E-03    0.71193E-03  1678   0.407E-04    0.440E-04
RMM:  58     0.477504663558E+03    0.33923E-05    0.33183E-03  1651   0.591E-04    0.425E-04
RMM:  59     0.477504682951E+03    0.19393E-04    0.51277E-03  1613   0.582E-04    0.697E-04
RMM:  60     0.477504719833E+03    0.36882E-04    0.84545E-03  1585   0.547E-04
  14 F= 0.47750472E+03 E0= 0.47751973E+03  d E =-.119249E+02  mag=     0.0002
       N       E                     dE             d eps       ncg     rms          rms(c)
DAV:   1     0.926628301297E+03    0.44912E+03   -0.21229E+04 10640   0.240E+02    0.409E+01
RMM:   2    -0.396833629238E+03   -0.13235E+04   -0.70688E+03 10408   0.763E+01    0.208E+02
RMM:   3     0.438998302622E+03    0.83583E+03   -0.25037E+02  9807   0.170E+01    0.228E+01
RMM:   4     0.420220446485E+03   -0.18778E+02   -0.42805E+01 10048   0.571E+00    0.329E+01
RMM:   5     0.446609511794E+03    0.26389E+02   -0.12493E+01 10182   0.280E+00    0.161E+01
RMM:   6     0.445850913087E+03   -0.75860E+00   -0.51719E+00 10134   0.165E+00    0.143E+01
RMM:   7     0.445752142392E+03   -0.98771E-01   -0.23846E+00  9778   0.138E+00    0.125E+01
RMM:   8     0.452465353569E+03    0.67132E+01   -0.16581E+00 10055   0.105E+00    0.418E+00
RMM:   9     0.452621102960E+03    0.15575E+00   -0.43898E-01 10443   0.522E-01    0.335E+00
RMM:  10     0.452627166240E+03    0.60633E-02   -0.53693E-02  9806   0.248E-01    0.263E+00
RMM:  11     0.452644030320E+03    0.16864E-01   -0.13972E-02 11063   0.106E-01    0.214E+00
RMM:  12     0.452657839216E+03    0.13809E-01   -0.55851E-03  9873   0.641E-02    0.186E+00
RMM:  13     0.452656384004E+03   -0.14552E-02   -0.11349E-03 10408   0.305E-02    0.167E+00
RMM:  14     0.452662945779E+03    0.65618E-02   -0.11178E-03  9839   0.296E-02    0.140E+00
RMM:  15     0.452663670164E+03    0.72439E-03   -0.21024E-04  9724   0.130E-02    0.122E+00
RMM:  16     0.452663269578E+03   -0.40059E-03   -0.15927E-04  8455   0.106E-02    0.108E+00
RMM:  17     0.452667626331E+03    0.43568E-02   -0.10648E-03  9284   0.265E-02    0.563E-01
RMM:  18     0.452668824503E+03    0.11982E-02   -0.92036E-04  9537   0.257E-02    0.921E-02
RMM:  19     0.452668625507E+03   -0.19900E-03    0.34747E-04  8409   0.121E-02    0.769E-02
RMM:  20     0.452668473664E+03   -0.15184E-03    0.13002E-03  5699   0.432E-03    0.575E-02
RMM:  21     0.452668352094E+03   -0.12157E-03    0.80598E-04  5355   0.269E-03    0.468E-02
RMM:  22     0.452668094829E+03   -0.25726E-03    0.50842E-04  5484   0.273E-03    0.288E-02
RMM:  23     0.452667985418E+03   -0.10941E-03    0.11242E-03  4983   0.201E-03    0.152E-02
RMM:  24     0.452667886725E+03   -0.98693E-04    0.56452E-04  4877   0.169E-03    0.445E-03
RMM:  25     0.452667831572E+03   -0.55153E-04    0.76928E-06  5039   0.178E-03    0.417E-03
RMM:  26     0.452667804394E+03   -0.27178E-04    0.95944E-06  4498   0.149E-03    0.306E-03
RMM:  27     0.452667787748E+03   -0.16646E-04    0.10889E-05  4223   0.138E-03    0.290E-03
RMM:  28     0.452667775648E+03   -0.12099E-04    0.14021E-05  4132   0.135E-03    0.205E-03
RMM:  29     0.452667771005E+03   -0.46438E-05    0.15003E-05  3453   0.114E-03
  15 F= 0.45266777E+03 E0= 0.45273210E+03  d E =-.367618E+02  mag=    -0.0015
       N       E                     dE             d eps       ncg     rms          rms(c)
DAV:   1     0.214363727445E+04    0.16910E+04   -0.63068E+04 10496   0.376E+02    0.103E+02
RMM:   2    -0.550936528533E+04   -0.76530E+04   -0.36815E+04 13253   0.167E+02    0.455E+02
RMM:   3    -0.112270214874E+04    0.43867E+04   -0.39347E+03 11598   0.518E+01    0.283E+02
RMM:   4     0.347947961302E+03    0.14707E+04   -0.79940E+02 10643   0.192E+01    0.819E+01
RMM:   5     0.409857670418E+03    0.61910E+02   -0.22764E+02 10669   0.103E+01    0.533E+01
RMM:   6     0.456807148466E+03    0.46949E+02   -0.61829E+01 10600   0.665E+00    0.408E+01
RMM:   7     0.475658607360E+03    0.18851E+02   -0.32304E+01 10670   0.296E+00    0.324E+01
RMM:   8     0.476871241961E+03    0.12126E+01   -0.16634E+01 10525   0.201E+00    0.264E+01
RMM:   9     0.464702563493E+03   -0.12169E+02   -0.37213E+01 10443   0.251E+00    0.281E+01
RMM:  10     0.471879255692E+03    0.71767E+01   -0.20508E+01 10486   0.178E+00    0.230E+01
RMM:  11     0.471708782292E+03   -0.17047E+00   -0.86411E+00 10181   0.129E+00    0.193E+01
RMM:  12     0.471992567949E+03    0.28379E+00   -0.14743E+00 10611   0.643E-01    0.154E+01
RMM:  13     0.472897099729E+03    0.90453E+00   -0.11437E+00 10183   0.591E-01    0.109E+01
RMM:  14     0.472656169218E+03   -0.24093E+00   -0.29430E+00 10665   0.390E-01    0.796E+00
RMM:  15     0.472533134332E+03   -0.12303E+00   -0.10564E+00 10821   0.239E-01    0.608E+00
RMM:  16     0.472898607601E+03    0.36547E+00   -0.10444E+00 10890   0.207E-01    0.459E+00
RMM:  17     0.472615098219E+03   -0.28351E+00   -0.67246E-01 10484   0.157E-01    0.423E+00
RMM:  18     0.472448488548E+03   -0.16661E+00   -0.33450E+00 10720   0.127E-01    0.320E+00
RMM:  19     0.472620111325E+03    0.17162E+00   -0.18851E-01 10470   0.979E-02    0.240E+00
RMM:  20     0.472658776118E+03    0.38665E-01   -0.20791E-02 10861   0.649E-02    0.200E+00
RMM:  21     0.472765013530E+03    0.10624E+00   -0.22324E-02  9976   0.120E-01    0.948E-01
RMM:  22     0.472763804031E+03   -0.12095E-02   -0.60676E-02 10936   0.689E-02    0.702E-01
RMM:  23     0.472787298009E+03    0.23494E-01    0.22313E-02 10203   0.643E-02    0.328E-01
RMM:  24     0.472789021282E+03    0.17233E-02   -0.41482E-03 10869   0.340E-02    0.111E-01
RMM:  25     0.472785710224E+03   -0.33111E-02   -0.61959E-03  9175   0.184E-02    0.685E-02
RMM:  26     0.472783748336E+03   -0.19619E-02   -0.27993E-03  7669   0.146E-02    0.132E-01
RMM:  27     0.472782359850E+03   -0.13885E-02   -0.10654E-02  6989   0.114E-02    0.109E-01
RMM:  28     0.472780077804E+03   -0.22820E-02   -0.74157E-03  7814   0.130E-02    0.469E-02
RMM:  29     0.472781026696E+03    0.94889E-03   -0.23576E-03  6594   0.935E-03    0.437E-02
RMM:  30     0.472779653144E+03   -0.13736E-02   -0.69871E-03  6205   0.780E-03    0.179E-02
RMM:  31     0.472779335034E+03   -0.31811E-03   -0.48871E-03  6094   0.765E-03    0.121E-02
RMM:  32     0.472778680812E+03   -0.65422E-03   -0.97104E-03  5431   0.776E-03    0.160E-02
RMM:  33     0.472779016221E+03    0.33541E-03    0.45796E-03  5480   0.805E-03    0.169E-02
RMM:  34     0.472777210238E+03   -0.18060E-02   -0.24538E-02  4934   0.736E-03    0.827E-03
RMM:  35     0.472776623248E+03   -0.58699E-03   -0.66366E-03  4613   0.752E-03    0.329E-03
RMM:  36     0.472779499861E+03    0.28766E-02   -0.21810E-03  4036   0.491E-03    0.362E-03
RMM:  37     0.472778867432E+03   -0.63243E-03   -0.64490E-03  4391   0.492E-03    0.233E-03
RMM:  38     0.472779053462E+03    0.18603E-03   -0.27890E-03  3982   0.525E-03    0.286E-03
RMM:  39     0.472779106646E+03    0.53184E-04   -0.62075E-03  4033   0.472E-03    0.212E-03
RMM:  40     0.472779482958E+03    0.37631E-03    0.33897E-03  3685   0.467E-03    0.921E-04
RMM:  41     0.472779612938E+03    0.12998E-03   -0.68894E-04  3600   0.336E-03    0.144E-03
RMM:  42     0.472779576340E+03   -0.36598E-04   -0.56783E-04  3484   0.312E-03    0.858E-04
RMM:  43     0.472779618088E+03    0.41748E-04   -0.10469E-04  3467   0.297E-03    0.700E-04
RMM:  44     0.472779591185E+03   -0.26903E-04   -0.57415E-04  3203   0.292E-03    0.450E-04
RMM:  45     0.472779589607E+03   -0.15774E-05   -0.18390E-04  3093   0.284E-03    0.601E-04
RMM:  46     0.472779608988E+03    0.19381E-04   -0.34931E-04  2994   0.266E-03    0.457E-04
RMM:  47     0.472779581446E+03   -0.27542E-04   -0.16767E-04  2903   0.267E-03    0.240E-04
RMM:  48     0.472779614885E+03    0.33439E-04    0.20221E-04  2838   0.260E-03    0.202E-04
RMM:  49     0.472779602355E+03   -0.12530E-04    0.10658E-03  2800   0.266E-03    0.178E-04
RMM:  50     0.472779605510E+03    0.31556E-05   -0.53465E-05  2771   0.255E-03
  16 F= 0.47277961E+03 E0= 0.47285635E+03  d E =-.166500E+02  mag=     0.0002
       N       E                     dE             d eps       ncg     rms          rms(c)
DAV:   1     0.567627248159E+03    0.94848E+02   -0.78565E+03 10568   0.134E+02    0.206E+01
RMM:   2     0.382268222995E+03   -0.18536E+03   -0.14293E+03  9798   0.349E+01    0.432E+01
RMM:   3     0.377030241724E+03   -0.52380E+01   -0.74510E+01 10292   0.867E+00    0.382E+01
RMM:   4     0.440288006626E+03    0.63258E+02   -0.86926E+00  9735   0.289E+00    0.135E+01
RMM:   5     0.436638006866E+03   -0.36500E+01   -0.35402E+00  9937   0.154E+00    0.160E+01
RMM:   6     0.441563755331E+03    0.49257E+01   -0.17146E+00  9931   0.956E-01    0.855E+00
RMM:   7     0.442351905720E+03    0.78815E+00   -0.11623E+00  9802   0.936E-01    0.440E+00
RMM:   8     0.442433430263E+03    0.81525E-01   -0.31318E-01 10045   0.487E-01    0.312E+00
RMM:   9     0.442472100592E+03    0.38670E-01   -0.94018E-02 10329   0.243E-01    0.267E+00
RMM:  10     0.442571159425E+03    0.99059E-01   -0.87324E-02  9600   0.259E-01    0.101E+00
RMM:  11     0.442580071573E+03    0.89121E-02   -0.23662E-02 10434   0.124E-01    0.594E-01
RMM:  12     0.442583752796E+03    0.36812E-02   -0.56187E-03  9818   0.654E-02    0.327E-01
RMM:  13     0.442584585305E+03    0.83251E-03   -0.11303E-03 10287   0.305E-02    0.248E-01
RMM:  14     0.442584073950E+03   -0.51135E-03   -0.84275E-04  9243   0.244E-02    0.161E-01
RMM:  15     0.442583111790E+03   -0.96216E-03   -0.28452E-04  9197   0.146E-02    0.123E-01
RMM:  16     0.442580538638E+03   -0.25732E-02   -0.79804E-04  8205   0.167E-02    0.139E-01
RMM:  17     0.442577838554E+03   -0.27001E-02   -0.43549E-04  8143   0.107E-02    0.126E-01
RMM:  18     0.442573921425E+03   -0.39171E-02   -0.36025E-04  7949   0.105E-02    0.729E-02
RMM:  19     0.442571224840E+03   -0.26966E-02   -0.16526E-04  7354   0.745E-03    0.553E-02
RMM:  20     0.442567805590E+03   -0.34192E-02   -0.62712E-05  6130   0.599E-03    0.417E-02
RMM:  21     0.442564559978E+03   -0.32456E-02    0.80472E-06  6103   0.529E-03    0.305E-02
RMM:  22     0.442561487853E+03   -0.30721E-02    0.75429E-05  6291   0.462E-03    0.286E-02
RMM:  23     0.442560063735E+03   -0.14241E-02    0.28407E-04  5591   0.292E-03    0.246E-02
RMM:  24     0.442558632536E+03   -0.14312E-02    0.27663E-04  5431   0.260E-03    0.159E-02
RMM:  25     0.442557812943E+03   -0.81959E-03    0.72513E-05  5519   0.264E-03    0.586E-03
RMM:  26     0.442557361053E+03   -0.45189E-03   -0.97687E-07  5166   0.215E-03    0.723E-03
RMM:  27     0.442557136069E+03   -0.22498E-03    0.19187E-05  4074   0.150E-03    0.649E-03
RMM:  28     0.442556993244E+03   -0.14283E-03    0.34750E-05  4169   0.144E-03    0.329E-03
RMM:  29     0.442556912250E+03   -0.80994E-04    0.73498E-05  4170   0.141E-03    0.250E-03
RMM:  30     0.442556886553E+03   -0.25697E-04    0.14799E-04  3206   0.117E-03    0.121E-03
RMM:  31     0.442556870595E+03   -0.15958E-04    0.66608E-05  3121   0.113E-03    0.129E-03
RMM:  32     0.442556865499E+03   -0.50957E-05    0.72173E-06  2799   0.107E-03
  17 F= 0.44255687E+03 E0= 0.44266488E+03  d E =-.468727E+02  mag=    -0.7185
       N       E                     dE             d eps       ncg     rms          rms(c)
DAV:   1     0.606687192178E+03    0.16413E+03   -0.10544E+04 10584   0.161E+02    0.267E+01
RMM:   2     0.372231380461E+03   -0.23446E+03   -0.20142E+03  9807   0.405E+01    0.399E+01
RMM:   3     0.265244571087E+03   -0.10699E+03   -0.97113E+01 10050   0.101E+01    0.600E+01
RMM:   4     0.421656719121E+03    0.15641E+03   -0.15097E+01 10075   0.343E+00    0.144E+01
RMM:   5     0.419711821026E+03   -0.19449E+01   -0.30117E+00  9870   0.139E+00    0.143E+01
RMM:   6     0.423471562695E+03    0.37597E+01   -0.16287E+00 10177   0.902E-01    0.105E+01
RMM:   7     0.424696792849E+03    0.12252E+01   -0.11659E+00  9821   0.893E-01    0.485E+00
RMM:   8     0.424754042077E+03    0.57249E-01   -0.81646E-01  9946   0.692E-01    0.427E+00
RMM:   9     0.425161457704E+03    0.40742E+00   -0.15742E-01  9902   0.363E-01    0.266E+00
RMM:  10     0.425160442929E+03   -0.10148E-02   -0.15668E-01  9667   0.389E-01    0.260E+00
RMM:  11     0.425260631245E+03    0.10019E+00   -0.49952E-02 10116   0.193E-01    0.804E-01
RMM:  12     0.425263441133E+03    0.28099E-02   -0.72355E-03  9892   0.873E-02    0.602E-01
RMM:  13     0.425266569515E+03    0.31284E-02   -0.46800E-03 10122   0.560E-02    0.332E-01
RMM:  14     0.425266787503E+03    0.21799E-03   -0.65539E-04  9974   0.228E-02    0.170E-01
RMM:  15     0.425265506391E+03   -0.12811E-02   -0.26763E-04  8650   0.131E-02    0.123E-01
RMM:  16     0.425263225240E+03   -0.22812E-02   -0.32228E-04  8697   0.136E-02    0.856E-02
RMM:  17     0.425260036823E+03   -0.31884E-02   -0.49798E-04  8081   0.135E-02    0.846E-02
RMM:  18     0.425257982601E+03   -0.20542E-02   -0.32781E-04  6866   0.794E-03    0.869E-02
RMM:  19     0.425253877175E+03   -0.41054E-02   -0.55616E-04  7438   0.114E-02    0.750E-02
RMM:  20     0.425251006250E+03   -0.28709E-02   -0.17382E-04  6506   0.643E-03    0.381E-02
RMM:  21     0.425248273511E+03   -0.27327E-02   -0.67920E-05  5691   0.409E-03    0.319E-02
RMM:  22     0.425244332895E+03   -0.39406E-02   -0.12584E-04  6318   0.523E-03    0.332E-02
RMM:  23     0.425242301415E+03   -0.20315E-02   -0.50528E-05  5670   0.355E-03    0.204E-02
RMM:  24     0.425239588640E+03   -0.27128E-02   -0.10020E-04  5745   0.384E-03    0.204E-02
RMM:  25     0.425238917372E+03   -0.67127E-03    0.69139E-05  5278   0.234E-03    0.161E-02
RMM:  26     0.425238354934E+03   -0.56244E-03    0.30990E-04  5342   0.226E-03    0.170E-02
RMM:  27     0.425238128988E+03   -0.22595E-03    0.11995E-03  4334   0.159E-03    0.473E-03
RMM:  28     0.425237974563E+03   -0.15442E-03    0.14301E-03  4800   0.156E-03    0.898E-03
RMM:  29     0.425237925704E+03   -0.48859E-04    0.19734E-03  3615   0.120E-03    0.808E-03
RMM:  30     0.425237875160E+03   -0.50544E-04    0.15683E-03  3614   0.114E-03    0.237E-03
RMM:  31     0.425237868319E+03   -0.68408E-05    0.11357E-04  3130   0.103E-03    0.229E-03
RMM:  32     0.425237861556E+03   -0.67628E-05    0.75655E-05  2956   0.979E-04
  18 F= 0.42523786E+03 E0= 0.42535410E+03  d E =-.173190E+02  mag=    -0.0004
       N       E                     dE             d eps       ncg     rms          rms(c)
DAV:   1     0.216221722204E+04    0.17370E+04   -0.70818E+04 10936   0.383E+02    0.111E+02
RMM:   2    -0.562508678877E+04   -0.77873E+04   -0.40082E+04 13557   0.171E+02    0.494E+02
RMM:   3    -0.961345959334E+03    0.46637E+04   -0.41629E+03 11602   0.511E+01    0.273E+02
RMM:   4     0.296874168050E+03    0.12582E+04   -0.95072E+02 10367   0.214E+01    0.566E+01
RMM:   5     0.264716544976E+03   -0.32158E+02   -0.36360E+02 10707   0.107E+01    0.574E+01
RMM:   6     0.326140048518E+03    0.61424E+02   -0.96214E+01 10608   0.500E+00    0.498E+01
RMM:   7     0.390935013471E+03    0.64795E+02   -0.23309E+01 10887   0.238E+00    0.297E+01
RMM:   8     0.384313865136E+03   -0.66211E+01   -0.19380E+01 10229   0.170E+00    0.322E+01
RMM:   9     0.392230406081E+03    0.79165E+01   -0.60585E+00 10185   0.135E+00    0.230E+01
RMM:  10     0.395138746150E+03    0.29083E+01   -0.41742E+00  9830   0.166E+00    0.107E+01
RMM:  11     0.394857142007E+03   -0.28160E+00   -0.54509E+00  9909   0.119E+00    0.580E+00
RMM:  12     0.395181512808E+03    0.32437E+00   -0.95707E-01 10516   0.462E-01    0.499E+00
RMM:  13     0.395129981623E+03   -0.51531E-01   -0.35591E-01 10612   0.191E-01    0.433E+00
RMM:  14     0.394368420436E+03   -0.76156E+00   -0.32637E+00  9665   0.205E-01    0.408E+00
RMM:  15     0.394490778987E+03    0.12236E+00   -0.17560E-01 10226   0.117E-01    0.323E+00
RMM:  16     0.394552580949E+03    0.61802E-01   -0.44787E-02 10182   0.736E-02    0.275E+00
RMM:  17     0.394584793993E+03    0.32213E-01   -0.21956E-02  9742   0.822E-02    0.237E+00
RMM:  18     0.394647049769E+03    0.62256E-01   -0.81125E-03 10110   0.479E-02    0.169E+00
RMM:  19     0.394665675159E+03    0.18625E-01   -0.37249E-03 10125   0.360E-02    0.139E+00
RMM:  20     0.394706998138E+03    0.41323E-01   -0.16589E-02  9588   0.102E-01    0.552E-01
RMM:  21     0.394713409054E+03    0.64109E-02   -0.52309E-03 10232   0.574E-02    0.199E-01
RMM:  22     0.394708443898E+03   -0.49652E-02   -0.63138E-04 10118   0.173E-02    0.139E-01
RMM:  23     0.394705031801E+03   -0.34121E-02   -0.41539E-04  8931   0.120E-02    0.102E-01
RMM:  24     0.394703625015E+03   -0.14068E-02   -0.89807E-05  7934   0.682E-03    0.105E-01
RMM:  25     0.394701110205E+03   -0.25148E-02   -0.12389E-04  6662   0.670E-03    0.477E-02
RMM:  26     0.394699646478E+03   -0.14637E-02    0.32647E-04  6845   0.595E-03    0.201E-02
RMM:  27     0.394698954836E+03   -0.69164E-03    0.30997E-04  5736   0.366E-03    0.217E-02
RMM:  28     0.394698071673E+03   -0.88316E-03    0.31343E-05  5793   0.348E-03    0.299E-02
RMM:  29     0.394697873788E+03   -0.19789E-03    0.17426E-04  5177   0.221E-03    0.269E-02
RMM:  30     0.394697725888E+03   -0.14790E-03    0.38291E-04  5218   0.198E-03    0.169E-02
RMM:  31     0.394697583115E+03   -0.14277E-03    0.33964E-04  5193   0.205E-03    0.878E-03
RMM:  32     0.394697538139E+03   -0.44976E-04    0.20193E-04  4297   0.145E-03    0.314E-03
RMM:  33     0.394697506213E+03   -0.31926E-04    0.25325E-04  3488   0.124E-03    0.169E-03
RMM:  34     0.394697477645E+03   -0.28569E-04    0.34582E-04  3616   0.122E-03    0.326E-03
RMM:  35     0.394697465683E+03   -0.11961E-04    0.52097E-04  3369   0.113E-03    0.336E-03
RMM:  36     0.394697466436E+03    0.75251E-06    0.82511E-04  2928   0.102E-03    0.278E-03
RMM:  37     0.394697462048E+03   -0.43882E-05    0.10065E-03  2663   0.963E-04    0.249E-03
RMM:  38     0.394697471149E+03    0.91011E-05    0.13056E-03  2487   0.915E-04    0.246E-03
RMM:  39     0.394697473080E+03    0.19316E-05    0.15401E-03  2401   0.870E-04    0.249E-03
RMM:  40     0.394697456496E+03   -0.16584E-04    0.69989E-04  2346   0.855E-04    0.241E-03
RMM:  41     0.394697452925E+03   -0.35707E-05    0.60174E-04  2329   0.856E-04    0.249E-03
RMM:  42     0.394697452414E+03   -0.51130E-06    0.63480E-04  2566   0.887E-04    0.246E-03
RMM:  43     0.394697451109E+03   -0.13052E-05    0.79857E-04  2560   0.868E-04    0.159E-03
RMM:  44     0.394697454558E+03    0.34496E-05    0.10436E-03  2488   0.843E-04    0.134E-03
RMM:  45     0.394697465831E+03    0.11273E-04    0.14366E-03  2392   0.818E-04    0.126E-03
RMM:  46     0.394697471717E+03    0.58860E-05    0.19035E-03  2241   0.779E-04    0.125E-03
RMM:  47     0.394697444840E+03   -0.26877E-04    0.16729E-03  2185   0.751E-04    0.141E-03
RMM:  48     0.394697449390E+03    0.45500E-05    0.12790E-03  2240   0.801E-04    0.162E-03
RMM:  49     0.394697458467E+03    0.90769E-05    0.12925E-03  2248   0.790E-04    0.198E-03
RMM:  50     0.394697444685E+03   -0.13782E-04    0.11959E-03  2141   0.773E-04    0.159E-03
RMM:  51     0.394697497924E+03    0.53239E-04    0.11873E-03  2192   0.785E-04    0.222E-03
RMM:  52     0.394697476989E+03   -0.20935E-04    0.50279E-03  2122   0.651E-04    0.145E-03
RMM:  53     0.394697490532E+03    0.13543E-04    0.15959E-03  2116   0.724E-04    0.228E-03
RMM:  54     0.394697523866E+03    0.33334E-04    0.20697E-03  2084   0.745E-04    0.266E-03
RMM:  55     0.394697437494E+03   -0.86372E-04    0.25029E-03  2089   0.660E-04    0.141E-03
RMM:  56     0.394697445022E+03    0.75279E-05    0.13359E-03  2076   0.742E-04    0.153E-03
RMM:  57     0.394697456476E+03    0.11454E-04    0.19524E-03  2045   0.713E-04    0.182E-03
RMM:  58     0.394697451633E+03   -0.48433E-05    0.18316E-03  2036   0.688E-04    0.150E-03
RMM:  59     0.394697441479E+03   -0.10153E-04    0.10061E-03  2027   0.709E-04    0.127E-03
RMM:  60     0.394697425224E+03   -0.16255E-04    0.50795E-04  2014   0.710E-04
  19 F= 0.39469743E+03 E0= 0.39476510E+03  d E =-.478594E+02  mag=     0.0022
       N       E                     dE             d eps       ncg     rms          rms(c)
DAV:   1     0.290359878339E+04    0.25089E+04   -0.18670E+05 11872   0.327E+02    0.125E+02
RMM:   2    -0.291059548357E+03   -0.31947E+04   -0.28606E+04 12785   0.156E+02    0.183E+02
RMM:   3    -0.158114346397E+04   -0.12901E+04   -0.52614E+03 10855   0.640E+01    0.220E+02
RMM:   4    -0.261724458690E+02    0.15550E+04   -0.18340E+03 11802   0.311E+01    0.149E+02
RMM:   5     0.287406992586E+03    0.31358E+03   -0.39758E+02 11417   0.158E+01    0.884E+01
RMM:   6     0.427089549800E+03    0.13968E+03   -0.98996E+01 11292   0.973E+00    0.497E+01
RMM:   7     0.436335003506E+03    0.92455E+01   -0.33394E+01 11937   0.449E+00    0.438E+01
RMM:   8     0.440034063255E+03    0.36991E+01   -0.40569E+01 11435   0.323E+00    0.368E+01
RMM:   9     0.454985937190E+03    0.14952E+02   -0.25344E+01 10681   0.399E+00    0.201E+01
RMM:  10     0.458616641913E+03    0.36307E+01   -0.20499E+01 11317   0.254E+00    0.105E+01
RMM:  11     0.458473727767E+03   -0.14291E+00   -0.28357E+00 10632   0.232E+00    0.819E+00
RMM:  12     0.458899275171E+03    0.42555E+00   -0.19391E+01 12026   0.112E+00    0.425E+00
RMM:  13     0.459711509922E+03    0.81223E+00    0.57807E+00 11676   0.742E-01    0.410E+00
RMM:  14     0.459391820398E+03   -0.31969E+00   -0.22677E+01 11125   0.762E-01    0.277E+00
RMM:  15     0.459775598375E+03    0.38378E+00   -0.11454E+00 11881   0.542E-01    0.274E+00
RMM:  16     0.459925299542E+03    0.14970E+00   -0.83996E+00 11574   0.400E-01    0.139E+00
RMM:  17     0.460978602490E+03    0.10533E+01    0.85169E+00 12724   0.303E-01    0.109E+00
RMM:  18     0.460247651475E+03   -0.73095E+00   -0.97527E+00 11754   0.263E-01    0.923E-01
RMM:  19     0.460083777134E+03   -0.16387E+00   -0.30051E+00 12009   0.234E-01    0.705E-01
RMM:  20     0.459915280279E+03   -0.16850E+00   -0.33508E+00 12227   0.220E-01    0.551E-01
RMM:  21     0.459762103171E+03   -0.15318E+00   -0.47921E+00 11643   0.252E-01    0.374E-01
RMM:  22     0.460352258246E+03    0.59016E+00   -0.39573E+00 11095   0.277E-01    0.341E-01
RMM:  23     0.459215478181E+03   -0.11368E+01   -0.25086E+01 11166   0.236E-01    0.265E-01
RMM:  24     0.460226269721E+03    0.10108E+01    0.54818E+00 10796   0.218E-01    0.261E-01
RMM:  25     0.460313624434E+03    0.87355E-01   -0.25829E+00  9939   0.126E-01    0.223E-01
RMM:  26     0.460148584462E+03   -0.16504E+00   -0.21763E+00  8802   0.116E-01    0.210E-01
RMM:  27     0.460139937792E+03   -0.86467E-02   -0.13686E+00  7455   0.103E-01    0.229E-01
RMM:  28     0.459372075831E+03   -0.76786E+00   -0.92813E+00  9590   0.122E-01    0.258E-01
RMM:  29     0.459590652786E+03    0.21858E+00   -0.52430E+00  9678   0.131E-01    0.302E-01
RMM:  30     0.460141875983E+03    0.55122E+00   -0.69668E+00  9526   0.168E-01    0.270E-01
RMM:  31     0.460340370299E+03    0.19849E+00   -0.22970E+00  9932   0.119E-01    0.190E-01
RMM:  32     0.460214640653E+03   -0.12573E+00   -0.22120E+00  9851   0.125E-01    0.133E-01
RMM:  33     0.459789587313E+03   -0.42505E+00   -0.75238E+00  9433   0.129E-01    0.124E-01
RMM:  34     0.459903697374E+03    0.11411E+00   -0.23478E+00  8568   0.140E-01    0.108E-01
RMM:  35     0.459429292098E+03   -0.47441E+00   -0.10729E+01  8637   0.136E-01    0.862E-02
RMM:  36     0.459057534865E+03   -0.37176E+00   -0.10347E+01  8385   0.175E-01    0.972E-02
RMM:  37     0.459199755573E+03    0.14222E+00   -0.10336E+01  7854   0.210E-01    0.890E-02
RMM:  38     0.458692571327E+03   -0.50718E+00   -0.13334E+01  7538   0.201E-01    0.865E-02
RMM:  39     0.459118184518E+03    0.42561E+00   -0.15643E+01  7218   0.221E-01    0.922E-02
RMM:  40     0.459637674401E+03    0.51949E+00   -0.24958E+00  6600   0.176E-01    0.131E-01
RMM:  41     0.458564164782E+03   -0.10735E+01   -0.32401E+01  5796   0.220E-01    0.147E-01
RMM:  42     0.457366855780E+03   -0.11973E+01   -0.19061E+01  5878   0.211E-01    0.246E-01
RMM:  43     0.459365945403E+03    0.19991E+01   -0.33843E+01  6422   0.324E-01    0.905E-02
RMM:  44     0.457700938831E+03   -0.16650E+01   -0.21943E+01  6324   0.208E-01    0.134E-01
RMM:  45     0.459088604146E+03    0.13877E+01   -0.13305E+01  6070   0.242E-01    0.977E-02
RMM:  46     0.458116235122E+03   -0.97237E+00   -0.18601E+01  6003   0.236E-01    0.131E-01
RMM:  47     0.458282531461E+03    0.16630E+00   -0.12872E+01  6710   0.189E-01    0.132E-01
RMM:  48     0.458780627243E+03    0.49810E+00   -0.23658E+01  5907   0.196E-01    0.980E-02
RMM:  49     0.459817729787E+03    0.10371E+01    0.13090E+00  6215   0.189E-01    0.844E-02
RMM:  50     0.459974851046E+03    0.15712E+00   -0.73259E+00  5343   0.152E-01    0.898E-02
RMM:  51     0.458540592489E+03   -0.14343E+01   -0.16957E+01  5804   0.159E-01    0.106E-01
RMM:  52     0.458620387170E+03    0.79795E-01   -0.14878E+01  7031   0.184E-01    0.141E-01
RMM:  53     0.457878634289E+03   -0.74175E+00   -0.17140E+01  6462   0.161E-01    0.141E-01
RMM:  54     0.459025676550E+03    0.11470E+01   -0.15457E+01  5919   0.208E-01    0.118E-01
RMM:  55     0.458278769974E+03   -0.74691E+00   -0.16832E+01  5604   0.191E-01    0.111E-01
RMM:  56     0.459237251288E+03    0.95848E+00   -0.74491E+00  5871   0.223E-01    0.118E-01
RMM:  57     0.459086688540E+03   -0.15056E+00   -0.67522E+00  5847   0.226E-01    0.127E-01
RMM:  58     0.459122456746E+03    0.35768E-01   -0.59781E+00  6078   0.241E-01    0.181E-01
RMM:  59     0.456223634740E+03   -0.28988E+01   -0.46719E+01  5718   0.287E-01    0.187E-01
RMM:  60     0.460954897592E+03    0.47313E+01    0.12707E+01  5290   0.282E-01
  20 F= 0.46095490E+03 E0= 0.46101631E+03  d E =0.183980E+02  mag=     1.2040
       N       E                     dE             d eps       ncg     rms          rms(c)
DAV:   1     0.637900806520E+03    0.18168E+03   -0.14458E+04 10512   0.183E+02    0.287E+01
RMM:   2     0.260088956345E+03   -0.37781E+03   -0.30278E+03  9975   0.491E+01    0.756E+01
RMM:   3     0.252519696202E+03   -0.75693E+01   -0.13182E+02 10205   0.115E+01    0.518E+01
RMM:   4     0.343231378092E+03    0.90712E+02   -0.28164E+01 10245   0.449E+00    0.313E+01
RMM:   5     0.366495270890E+03    0.23264E+02   -0.93084E+00  9871   0.221E+00    0.217E+01
RMM:   6     0.376616862306E+03    0.10122E+02   -0.45509E+00 10053   0.153E+00    0.141E+01
RMM:   7     0.377380489083E+03    0.76363E+00   -0.17128E+00 10289   0.920E-01    0.117E+01
RMM:   8     0.379234956068E+03    0.18545E+01   -0.27293E+00  9700   0.115E+00    0.617E+00
RMM:   9     0.379238627478E+03    0.36714E-02   -0.44249E+00 10364   0.602E-01    0.284E+00
RMM:  10     0.378825372182E+03   -0.41326E+00   -0.41466E+00 10078   0.310E-01    0.208E+00
RMM:  11     0.378653854025E+03   -0.17152E+00   -0.15695E+00  9743   0.301E-01    0.147E+00
RMM:  12     0.378644022487E+03   -0.98315E-02   -0.37286E-01  9941   0.157E-01    0.984E-01
RMM:  13     0.378638535184E+03   -0.54873E-02   -0.13459E-01 10143   0.110E-01    0.422E-01
RMM:  14     0.378628453739E+03   -0.10081E-01   -0.61506E-02 10024   0.673E-02    0.293E-01
RMM:  15     0.378615779894E+03   -0.12674E-01   -0.45062E-02 10020   0.435E-02    0.257E-01
RMM:  16     0.378597890056E+03   -0.17890E-01   -0.83832E-02  9367   0.358E-02    0.196E-01
RMM:  17     0.378579043818E+03   -0.18846E-01   -0.75138E-02  9228   0.374E-02    0.205E-01
RMM:  18     0.378564713692E+03   -0.14330E-01   -0.71644E-02  8920   0.349E-02    0.156E-01
RMM:  19     0.378543792466E+03   -0.20921E-01   -0.13075E-01  8545   0.348E-02    0.148E-01
RMM:  20     0.378454537968E+03   -0.89254E-01   -0.56542E-01  7623   0.385E-02    0.373E-01
RMM:  21     0.377412993080E+03   -0.10415E+01   -0.65116E+00  8404   0.975E-02    0.941E-01
RMM:  22     0.375776801825E+03   -0.16362E+01   -0.15288E+01  6548   0.137E-01    0.103E+00
RMM:  23     0.375246544104E+03   -0.53026E+00   -0.62199E+00  6129   0.732E-02    0.107E+00
RMM:  24     0.375182280466E+03   -0.64264E-01   -0.15373E+00  5674   0.365E-02    0.108E+00
RMM:  25     0.375163615414E+03   -0.18665E-01   -0.43460E-01  5724   0.198E-02    0.108E+00
RMM:  26     0.375157035167E+03   -0.65802E-02   -0.13463E-01  4562   0.116E-02    0.108E+00
RMM:  27     0.375154984583E+03   -0.20506E-02   -0.43722E-02  7717   0.150E-02    0.108E+00
RMM:  28     0.375153671704E+03   -0.13129E-02   -0.15501E-02  8065   0.147E-02    0.108E+00
RMM:  29     0.375153047472E+03   -0.62423E-03   -0.65530E-03  6737   0.761E-03    0.108E+00
RMM:  30     0.375152780532E+03   -0.26694E-03   -0.29934E-03  5390   0.441E-03    0.108E+00
RMM:  31     0.375152673172E+03   -0.10736E-03   -0.15165E-03  4633   0.299E-03    0.108E+00
RMM:  32     0.375152556833E+03   -0.11634E-03   -0.77197E-04  5109   0.267E-03    0.108E+00
[...]
DAV:   1     0.372625540186E+03    0.21085E+01   -0.27427E+02 10256   0.203E+01    0.188E+00
RMM:   2     0.369826347130E+03   -0.27992E+01   -0.25725E+01  9715   0.423E+00    0.262E+00
RMM:   3     0.369867097400E+03    0.40750E-01   -0.12255E+00 10483   0.102E+00    0.461E+00
RMM:   4     0.369931628582E+03    0.64531E-01   -0.12316E-01  9931   0.267E-01    0.541E+00
RMM:   5     0.370389876560E+03    0.45825E+00   -0.68790E-02  9743   0.173E-01    0.197E+00
RMM:   6     0.370434047578E+03    0.44171E-01   -0.48422E-02  9870   0.153E-01    0.113E+00
RMM:   7     0.370439650773E+03    0.56032E-02   -0.45248E-02  9416   0.147E-01    0.111E+00
RMM:   8     0.370458698381E+03    0.19048E-01   -0.11700E-02  9746   0.753E-02    0.768E-01
RMM:   9     0.370467373657E+03    0.86753E-02   -0.80424E-03  9329   0.580E-02    0.180E-01
RMM:  10     0.370466964050E+03   -0.40961E-03   -0.17353E-03  9172   0.290E-02    0.331E-01
RMM:  11     0.370467312004E+03    0.34795E-03   -0.23628E-04  8524   0.124E-02    0.264E-01
RMM:  12     0.370468053585E+03    0.74158E-03   -0.13463E-04  8081   0.103E-02    0.556E-02
RMM:  13     0.370468085110E+03    0.31525E-04   -0.34969E-05  6657   0.527E-03    0.131E-02
RMM:  14     0.370468070862E+03   -0.14248E-04   -0.80442E-06  5192   0.264E-03    0.745E-03
RMM:  15     0.370468043319E+03   -0.27543E-04   -0.63095E-06  4943   0.202E-03    0.416E-03
RMM:  16     0.370468006974E+03   -0.36345E-04   -0.38110E-06  4110   0.163E-03    0.344E-03
RMM:  17     0.370467980403E+03   -0.26571E-04   -0.27446E-06  3781   0.139E-03    0.222E-03
RMM:  18     0.370467953158E+03   -0.27245E-04   -0.21608E-06  3726   0.130E-03    0.167E-03
RMM:  19     0.370467934629E+03   -0.18528E-04   -0.15791E-06  3394   0.116E-03    0.114E-03
RMM:  20     0.370467926073E+03   -0.85568E-05   -0.35151E-07  2884   0.103E-03
  41 F= 0.37046793E+03 E0= 0.37052614E+03  d E =-.241227E+00  mag=     0.0000
       N       E                     dE             d eps       ncg     rms          rms(c)
DAV:   1     0.370767660938E+03    0.29973E+00   -0.46285E+01  9952   0.805E+00    0.470E-01
RMM:   2     0.370340743533E+03   -0.42692E+00   -0.42737E+00  9196   0.166E+00    0.595E-01
RMM:   3     0.370366196052E+03    0.25453E-01   -0.19542E-01  9792   0.397E-01    0.913E-01
RMM:   4     0.370376410499E+03    0.10214E-01   -0.82468E-03  9216   0.682E-02    0.491E-01
RMM:   5     0.370353063118E+03   -0.23347E-01   -0.17145E-03  9246   0.340E-02    0.114E+00
RMM:   6     0.370378600736E+03    0.25538E-01   -0.71781E-03  9207   0.507E-02    0.576E-01
RMM:   7     0.370385402438E+03    0.68017E-02   -0.32333E-03  9184   0.389E-02    0.286E-01
RMM:   8     0.370388108520E+03    0.27061E-02   -0.10785E-02  8815   0.590E-02    0.149E-01
RMM:   9     0.370388029580E+03   -0.78940E-04   -0.95043E-04  8965   0.224E-02    0.147E-01
RMM:  10     0.370388314543E+03    0.28496E-03   -0.15542E-04  8039   0.977E-03    0.736E-02
RMM:  11     0.370388390004E+03    0.75462E-04   -0.63739E-05  7169   0.568E-03    0.187E-02
RMM:  12     0.370388389249E+03   -0.75484E-06   -0.85831E-06  5299   0.281E-03
  42 F= 0.37038839E+03 E0= 0.37044782E+03  d E =-.795368E-01  mag=     0.0000
       N       E                     dE             d eps       ncg     rms          rms(c)
DAV:   1     0.373962294370E+03    0.35739E+01   -0.41528E+02 10032   0.244E+01    0.165E+00
RMM:   2     0.369641634356E+03   -0.43207E+01   -0.42586E+01  9575   0.536E+00    0.289E+00
RMM:   3     0.369593270057E+03   -0.48364E-01   -0.18779E+00  9923   0.122E+00    0.403E+00
RMM:   4     0.370047186213E+03    0.45392E+00   -0.13102E-01  9660   0.279E-01    0.198E+00
RMM:   5     0.369922018957E+03   -0.12517E+00   -0.36687E-02  9802   0.139E-01    0.309E+00
RMM:   6     0.370100147151E+03    0.17813E+00   -0.69101E-02  9496   0.162E-01    0.150E+00
RMM:   7     0.370115960443E+03    0.15813E-01   -0.79802E-02  9529   0.178E-01    0.104E+00
RMM:   8     0.370146928123E+03    0.30968E-01   -0.19393E-02  9740   0.979E-02    0.717E-01
RMM:   9     0.370151761758E+03    0.48336E-02   -0.46517E-03  9734   0.483E-02    0.504E-01
RMM:  10     0.370153779854E+03    0.20181E-02   -0.17747E-03  9325   0.313E-02    0.199E-01
RMM:  11     0.370154485466E+03    0.70561E-03   -0.80210E-04  9159   0.221E-02    0.635E-02
RMM:  12     0.370154552919E+03    0.67452E-04   -0.69222E-05  8146   0.753E-03    0.314E-02
RMM:  13     0.370154541643E+03   -0.11276E-04   -0.14890E-05  6486   0.466E-03    0.170E-02
RMM:  14     0.370154523845E+03   -0.17798E-04    0.15282E-06  5285   0.271E-03    0.110E-02
RMM:  15     0.370154481301E+03   -0.42544E-04   -0.76166E-07  5168   0.223E-03    0.393E-03
RMM:  16     0.370154419260E+03   -0.62041E-04   -0.29311E-06  4530   0.172E-03    0.506E-03
RMM:  17     0.370154375891E+03   -0.43369E-04    0.16107E-06  4030   0.139E-03    0.354E-03
RMM:  18     0.370154333162E+03   -0.42729E-04   -0.19704E-07  4484   0.146E-03    0.181E-03
RMM:  19     0.370154317219E+03   -0.15943E-04    0.40198E-06  3445   0.111E-03    0.919E-04
RMM:  20     0.370154308334E+03   -0.88846E-05    0.48233E-06  3335   0.106E-03
  43 F= 0.37015431E+03 E0= 0.37021534E+03  d E =-.313618E+00  mag=     0.0000
       N       E                     dE             d eps       ncg     rms          rms(c)
DAV:   1     0.388701302803E+03    0.18547E+02   -0.16563E+03 10336   0.505E+01    0.448E+00
RMM:   2     0.364751032286E+03   -0.23950E+02   -0.21479E+02  9792   0.123E+01    0.125E+01
RMM:   3     0.367047906840E+03    0.22969E+01   -0.88377E+00  9866   0.270E+00    0.776E+00
RMM:   4     0.369154399181E+03    0.21065E+01   -0.12195E+00  9818   0.906E-01    0.421E+00
RMM:   5     0.368878190912E+03   -0.27621E+00   -0.27629E-01 10030   0.374E-01    0.715E+00
RMM:   6     0.369197023038E+03    0.31883E+00   -0.12921E-01  9778   0.270E-01    0.478E+00
RMM:   7     0.369421862091E+03    0.22484E+00   -0.11998E-01  9746   0.241E-01    0.400E+00
RMM:   8     0.369709151871E+03    0.28729E+00   -0.26190E-01  9757   0.329E-01    0.142E+00
RMM:   9     0.369753315296E+03    0.44163E-01   -0.11834E-01  9705   0.222E-01    0.972E-01
RMM:  10     0.369756611214E+03    0.32959E-02   -0.85052E-03  9907   0.738E-02    0.883E-01
RMM:  11     0.369757056550E+03    0.44534E-03   -0.10372E-02  9146   0.900E-02    0.502E-01
RMM:  12     0.369761249278E+03    0.41927E-02   -0.49845E-03 10004   0.548E-02    0.407E-01
RMM:  13     0.369762422435E+03    0.11732E-02   -0.25278E-03  9194   0.416E-02    0.172E-01
RMM:  14     0.369762567833E+03    0.14540E-03   -0.33703E-04  8997   0.175E-02    0.412E-02
RMM:  15     0.369762550663E+03   -0.17170E-04   -0.23494E-05  6316   0.498E-03    0.214E-02
RMM:  16     0.369762505517E+03   -0.45146E-04   -0.13199E-05  5677   0.326E-03    0.791E-03
RMM:  17     0.369762444564E+03   -0.60952E-04   -0.12889E-05  5458   0.293E-03    0.131E-02
RMM:  18     0.369762348172E+03   -0.96393E-04   -0.21196E-05  5070   0.236E-03    0.353E-03
RMM:  19     0.369762296581E+03   -0.51591E-04   -0.89074E-06  4657   0.174E-03    0.411E-03
RMM:  20     0.369762264404E+03   -0.32177E-04   -0.18117E-06  4055   0.138E-03    0.229E-03
RMM:  21     0.369762239791E+03   -0.24613E-04   -0.17150E-07  4360   0.138E-03    0.185E-03
RMM:  22     0.369762228946E+03   -0.10845E-04    0.23647E-06  3265   0.109E-03    0.753E-04
RMM:  23     0.369762216956E+03   -0.11989E-04    0.26586E-06  4002   0.122E-03    0.580E-04
RMM:  24     0.369762213728E+03   -0.32289E-05    0.34025E-06  2847   0.952E-04
  44 F= 0.36976221E+03 E0= 0.36981838E+03  d E =-.705712E+00  mag=     0.0002
       N       E                     dE             d eps       ncg     rms          rms(c)
DAV:   1     0.476984875566E+03    0.10722E+03   -0.67305E+03 10576   0.112E+02    0.147E+01
RMM:   2     0.318846520384E+03   -0.15814E+03   -0.12497E+03  9807   0.299E+01    0.403E+01
RMM:   3     0.339105020816E+03    0.20259E+02   -0.52125E+01  9818   0.692E+00    0.248E+01
RMM:   4     0.362202965413E+03    0.23098E+02   -0.67390E+00  9857   0.244E+00    0.141E+01
RMM:   5     0.364686448712E+03    0.24835E+01   -0.30029E+00  9807   0.124E+00    0.158E+01
RMM:   6     0.367006208604E+03    0.23198E+01   -0.11599E+00  9791   0.767E-01    0.110E+01
RMM:   7     0.368976691822E+03    0.19705E+01   -0.82084E-01  9636   0.638E-01    0.733E+00
RMM:   8     0.369501518351E+03    0.52483E+00   -0.69547E-01  9776   0.615E-01    0.332E+00
RMM:   9     0.369629021370E+03    0.12750E+00   -0.31951E-01  9890   0.420E-01    0.214E+00
RMM:  10     0.369660049833E+03    0.31028E-01   -0.74619E-02  9888   0.189E-01    0.146E+00
RMM:  11     0.369677175081E+03    0.17125E-01   -0.73653E-02  9513   0.212E-01    0.122E+00
RMM:  12     0.369682897592E+03    0.57225E-02   -0.11282E-02  9981   0.896E-02    0.107E+00
RMM:  13     0.369692572271E+03    0.96747E-02   -0.96518E-03  9097   0.797E-02    0.222E-01
RMM:  14     0.369693112977E+03    0.54071E-03   -0.80395E-04  9325   0.267E-02    0.170E-01
RMM:  15     0.369693285708E+03    0.17273E-03   -0.15926E-04  8226   0.104E-02    0.579E-02
RMM:  16     0.369693253770E+03   -0.31938E-04   -0.56361E-05  6836   0.622E-03    0.338E-02
RMM:  17     0.369693136699E+03   -0.11707E-03   -0.49179E-05  6237   0.480E-03    0.267E-02
RMM:  18     0.369693059227E+03   -0.77472E-04   -0.46148E-05  6044   0.402E-03    0.134E-02
RMM:  19     0.369692972851E+03   -0.86376E-04   -0.23717E-05  5421   0.297E-03    0.875E-03
RMM:  20     0.369692929158E+03   -0.43693E-04   -0.75315E-06  4586   0.197E-03    0.686E-03
RMM:  21     0.369692869816E+03   -0.59342E-04   -0.92890E-06  5383   0.224E-03    0.738E-03
RMM:  22     0.369692848660E+03   -0.21156E-04    0.88009E-07  4638   0.162E-03    0.368E-03
RMM:  23     0.369692825854E+03   -0.22806E-04    0.20502E-06  4729   0.155E-03    0.233E-03
RMM:  24     0.369692815833E+03   -0.10021E-04    0.40135E-06  3936   0.126E-03    0.128E-03
RMM:  25     0.369692811595E+03   -0.42375E-05    0.49945E-06  3664   0.114E-03
  45 F= 0.36969281E+03 E0= 0.36972660E+03  d E =-.775114E+00  mag=    -0.0001
       N       E                     dE             d eps       ncg     rms          rms(c)
DAV:   1     0.390954432088E+03    0.21262E+02   -0.18667E+03 10336   0.544E+01    0.733E+00
RMM:   2     0.360561356917E+03   -0.30393E+02   -0.24763E+02  9830   0.133E+01    0.153E+01
RMM:   3     0.359664673278E+03   -0.89668E+00   -0.99898E+00  9899   0.295E+00    0.136E+01
RMM:   4     0.365138887649E+03    0.54742E+01   -0.22384E+00  9828   0.125E+00    0.744E+00
RMM:   5     0.369191551593E+03    0.40527E+01   -0.10521E+00  9730   0.703E-01    0.314E+00
RMM:   6     0.369250344379E+03    0.58793E-01   -0.42624E-01  9779   0.477E-01    0.438E+00
RMM:   7     0.369452409766E+03    0.20207E+00   -0.11242E-01 10196   0.243E-01    0.268E+00
RMM:   8     0.369527339624E+03    0.74930E-01   -0.12485E-01  9625   0.243E-01    0.128E+00
RMM:   9     0.369554853577E+03    0.27514E-01   -0.72446E-02  9652   0.195E-01    0.574E-01
RMM:  10     0.369559525155E+03    0.46716E-02   -0.31712E-02  9631   0.119E-01    0.721E-01
RMM:  11     0.369563025290E+03    0.35001E-02   -0.22631E-03  9713   0.467E-02    0.426E-01
RMM:  12     0.369565310755E+03    0.22855E-02   -0.42711E-03  9670   0.462E-02    0.937E-02
RMM:  13     0.369565338498E+03    0.27742E-04   -0.26454E-04  8821   0.147E-02    0.673E-02
RMM:  14     0.369565326199E+03   -0.12299E-04   -0.53833E-05  7377   0.655E-03    0.248E-02
RMM:  15     0.369565249057E+03   -0.77141E-04   -0.19019E-05  6048   0.384E-03    0.140E-02
RMM:  16     0.369565173827E+03   -0.75230E-04   -0.77264E-06  5356   0.251E-03    0.117E-02
RMM:  17     0.369565027082E+03   -0.14675E-03   -0.10856E-05  5431   0.243E-03    0.507E-03
RMM:  18     0.369564952611E+03   -0.74471E-04   -0.15721E-06  4262   0.154E-03    0.435E-03
RMM:  19     0.369564834511E+03   -0.11810E-03   -0.41119E-06  4554   0.161E-03    0.446E-03
RMM:  20     0.369564779264E+03   -0.55247E-04   -0.32171E-07  4247   0.144E-03    0.408E-03
RMM:  21     0.369564760319E+03   -0.18946E-04    0.24086E-06  3465   0.118E-03    0.193E-03
RMM:  22     0.369564734926E+03   -0.25393E-04    0.25312E-06  3816   0.123E-03    0.208E-03
RMM:  23     0.369564731669E+03   -0.32571E-05    0.38720E-06  2701   0.992E-04
  46 F= 0.36956473E+03 E0= 0.36960994E+03  d E =-.903194E+00  mag=    -0.0002
       N       E                     dE             d eps       ncg     rms          rms(c)
DAV:   1     0.370784671282E+03    0.12199E+01   -0.14381E+02  9952   0.143E+01    0.101E+00
RMM:   2     0.369383414500E+03   -0.14013E+01   -0.13874E+01  9040   0.307E+00    0.165E+00
RMM:   3     0.369458393075E+03    0.74979E-01   -0.61499E-01  9670   0.694E-01    0.135E+00
RMM:   4     0.369476585755E+03    0.18193E-01   -0.44100E-02  9265   0.157E-01    0.163E+00
RMM:   5     0.369445195214E+03   -0.31391E-01   -0.29119E-02  9621   0.113E-01    0.250E+00
RMM:   6     0.369534895868E+03    0.89701E-01   -0.17481E-02  9488   0.852E-02    0.830E-01
RMM:   7     0.369535619126E+03    0.72326E-03   -0.18102E-02  9689   0.867E-02    0.675E-01
RMM:   8     0.369552948408E+03    0.17329E-01   -0.14103E-02  9394   0.786E-02    0.288E-01
RMM:   9     0.369552800731E+03   -0.14768E-03   -0.23035E-03  9509   0.342E-02    0.253E-01
RMM:  10     0.369553680654E+03    0.87992E-03   -0.10346E-03  9095   0.234E-02    0.123E-01
RMM:  11     0.369553896478E+03    0.21582E-03   -0.12199E-04  8069   0.943E-03    0.507E-02
RMM:  12     0.369553927647E+03    0.31169E-04   -0.40724E-05  6666   0.451E-03    0.229E-02
RMM:  13     0.369553924385E+03   -0.32622E-05   -0.94596E-06  5393   0.275E-03
  47 F= 0.36955392E+03 E0= 0.36959516E+03  d E =-.914002E+00  mag=    -0.0001
       N       E                     dE             d eps       ncg     rms          rms(c)
DAV:   1     0.369583356686E+03    0.29429E-01   -0.23346E+01  9192   0.518E+00    0.108E+00
RMM:   2     0.368793874564E+03   -0.78948E+00   -0.16417E+00  9771   0.109E+00    0.451E+00
RMM:   3     0.369333901686E+03    0.54003E+00   -0.11499E-01  9968   0.277E-01    0.235E+00
RMM:   4     0.369436439121E+03    0.10254E+00   -0.31875E-02  9968   0.121E-01    0.180E+00
RMM:   5     0.369490387940E+03    0.53949E-01   -0.25727E-02  9483   0.113E-01    0.158E+00
RMM:   6     0.369514554618E+03    0.24167E-01   -0.15294E-02  9882   0.885E-02    0.480E-01
RMM:   7     0.369521149247E+03    0.65946E-02   -0.91976E-03  9377   0.637E-02    0.265E-01
RMM:   8     0.369522613581E+03    0.14643E-02   -0.15185E-03  8968   0.269E-02    0.125E-01
RMM:   9     0.369522800260E+03    0.18668E-03   -0.38567E-04  8579   0.142E-02    0.550E-02
RMM:  10     0.369522828648E+03    0.28387E-04   -0.46138E-05  7178   0.572E-03    0.245E-02
RMM:  11     0.369522828952E+03    0.30408E-06   -0.13411E-05  5551   0.346E-03
  48 F= 0.36952283E+03 E0= 0.36956239E+03  d E =-.310954E-01  mag=    -0.0001
       N       E                     dE             d eps       ncg     rms          rms(c)
DAV:   1     0.369523361150E+03    0.53250E-03   -0.87234E-01  8992   0.100E+00    0.201E-01
RMM:   2     0.369502192974E+03   -0.21168E-01   -0.61679E-02  9350   0.215E-01    0.854E-01
RMM:   3     0.369514539713E+03    0.12347E-01   -0.38130E-03  9516   0.502E-02    0.462E-01
RMM:   4     0.369516910936E+03    0.23712E-02   -0.11887E-03  9257   0.225E-02    0.401E-01
RMM:   5     0.369519613571E+03    0.27026E-02   -0.80804E-04  9031   0.197E-02    0.275E-01
RMM:   6     0.369520597529E+03    0.98396E-03   -0.72297E-04  8921   0.181E-02    0.709E-02
RMM:   7     0.369520748694E+03    0.15117E-03   -0.35143E-04  8295   0.122E-02    0.468E-02
RMM:   8     0.369520808833E+03    0.60139E-04   -0.51367E-05  6985   0.490E-03    0.169E-02
RMM:   9     0.369520809831E+03    0.99721E-06   -0.15620E-05  5677   0.318E-03
  49 F= 0.36952081E+03 E0= 0.36956103E+03  d E =-.331146E-01  mag=    -0.0001
       N       E                     dE             d eps       ncg     rms          rms(c)
DAV:   1     0.369613772559E+03    0.92964E-01   -0.24179E+01  9736   0.617E+00    0.671E-01
RMM:   2     0.369417189667E+03   -0.19658E+00   -0.18074E+00  9574   0.123E+00    0.114E+00
RMM:   3     0.369445150232E+03    0.27961E-01   -0.89808E-02 10444   0.291E-01    0.146E+00
RMM:   4     0.369453973258E+03    0.88230E-02   -0.14195E-02  9541   0.879E-02    0.109E+00
RMM:   5     0.369450324689E+03   -0.36486E-02   -0.44719E-03  9441   0.491E-02    0.121E+00
RMM:   6     0.369481423514E+03    0.31099E-01   -0.31823E-03  9059   0.370E-02    0.215E-01
RMM:   7     0.369481837051E+03    0.41354E-03   -0.45117E-03  9232   0.467E-02    0.211E-01
RMM:   8     0.369482508910E+03    0.67186E-03   -0.59880E-04  8911   0.189E-02    0.107E-01
RMM:   9     0.369482566599E+03    0.57689E-04   -0.21216E-04  8399   0.105E-02    0.646E-02
RMM:  10     0.369482643290E+03    0.76691E-04   -0.43257E-05  7153   0.534E-03    0.337E-02
RMM:  11     0.369482653203E+03    0.99130E-05   -0.99247E-06  5512   0.296E-03
  50 F= 0.36948265E+03 E0= 0.36951116E+03  d E =-.381566E-01  mag=    -0.0000
       N       E                     dE             d eps       ncg     rms          rms(c)
DAV:   1     0.370740049755E+03    0.12574E+01   -0.21624E+02  9792   0.185E+01    0.194E+00
RMM:   2     0.366658159550E+03   -0.40819E+01   -0.16203E+01  9835   0.388E+00    0.987E+00
RMM:   3     0.368998268988E+03    0.23401E+01   -0.82746E-01 10592   0.826E-01    0.406E+00
RMM:   4     0.369184467943E+03    0.18620E+00   -0.19688E-01 10031   0.309E-01    0.302E+00
RMM:   5     0.369371296546E+03    0.18683E+00   -0.62747E-02  9947   0.177E-01    0.208E+00
RMM:   6     0.369439535528E+03    0.68239E-01   -0.56710E-02  9602   0.161E-01    0.123E+00
RMM:   7     0.369439455083E+03   -0.80445E-04   -0.24591E-02  9632   0.113E-01    0.910E-01
RMM:   8     0.369453253448E+03    0.13798E-01   -0.11329E-02  9786   0.723E-02    0.489E-01
RMM:   9     0.369457654136E+03    0.44007E-02   -0.34909E-03  9485   0.420E-02    0.144E-01
RMM:  10     0.369457922950E+03    0.26881E-03   -0.78394E-04  9277   0.228E-02    0.134E-01
RMM:  11     0.369458052578E+03    0.12963E-03   -0.13613E-04  8681   0.996E-03    0.102E-01
RMM:  12     0.369458174515E+03    0.12194E-03   -0.46262E-05  7314   0.676E-03    0.340E-02
RMM:  13     0.369458196656E+03    0.22141E-04   -0.67115E-07  5513   0.320E-03    0.824E-03
RMM:  14     0.369458192576E+03   -0.40797E-05    0.65047E-06  5319   0.215E-03
  51 F= 0.36945819E+03 E0= 0.36946428E+03  d E =-.626173E-01  mag=    -0.0000
       N       E                     dE             d eps       ncg     rms          rms(c)
DAV:   1     0.369740333360E+03    0.28214E+00   -0.52756E+01  9792   0.914E+00    0.101E+00
RMM:   2     0.368380834010E+03   -0.13595E+01   -0.36533E+00  9795   0.186E+00    0.558E+00
RMM:   3     0.369263792075E+03    0.88296E+00   -0.21224E-01 10603   0.417E-01    0.193E+00
RMM:   4     0.369370124950E+03    0.10633E+00   -0.62777E-02  9884   0.169E-01    0.199E+00
RMM:   5     0.369419079385E+03    0.48954E-01   -0.19625E-02 10149   0.104E-01    0.904E-01
RMM:   6     0.369439022784E+03    0.19943E-01   -0.16186E-02  9496   0.857E-02    0.368E-01
RMM:   7     0.369440869487E+03    0.18467E-02   -0.56502E-03  9713   0.586E-02    0.227E-01
RMM:   8     0.369441193182E+03    0.32369E-03   -0.19396E-03  9634   0.322E-02    0.204E-01
RMM:   9     0.369441057089E+03   -0.13609E-03   -0.37748E-04  8959   0.156E-02    0.193E-01
RMM:  10     0.369441415279E+03    0.35819E-03   -0.99639E-05  7892   0.793E-03    0.136E-01
RMM:  11     0.369441560106E+03    0.14483E-03   -0.35336E-05  7074   0.507E-03    0.463E-02
RMM:  12     0.369441579810E+03    0.19704E-04   -0.10799E-05  5674   0.296E-03    0.636E-03
RMM:  13     0.369441579685E+03   -0.12456E-06   -0.28101E-06  4479   0.178E-03
  52 F= 0.36944158E+03 E0= 0.36945257E+03  d E =-.792301E-01  mag=    -0.0000
