       N       E                     dE             d eps       ncg     rms          rms(c)
DAV:   1     0.165359655236E+05    0.16536E+05   -0.11475E+06 20688   0.116E+03
DAV:   2     0.125832151392E+03   -0.16410E+05   -0.15935E+05 18208   0.356E+02
DAV:   3    -0.708083673095E+03   -0.83392E+03   -0.78780E+03 18912   0.707E+01
DAV:   4    -0.797737689880E+03   -0.89654E+02   -0.86802E+02 26664   0.161E+01
DAV:   5    -0.807236276029E+03   -0.94986E+01   -0.94890E+01 26216   0.363E+00    0.688E+01
RMM:   6    -0.147890327926E+04   -0.67167E+03   -0.48706E+02 17705   0.104E+01    0.223E+02
RMM:   7    -0.796023463183E+03    0.68288E+03   -0.12406E+02 16808   0.668E+00    0.521E+01
RMM:   8    -0.829022043824E+03   -0.32999E+02   -0.11271E+02 16661   0.740E+00    0.530E+01
RMM:   9    -0.744535815407E+03    0.84486E+02   -0.39261E+01 16481   0.445E+00    0.320E+01
RMM:  10    -0.737927712501E+03    0.66081E+01   -0.10839E+01 16671   0.241E+00    0.319E+01
RMM:  11    -0.719490277854E+03    0.18437E+02   -0.55758E+00 16591   0.183E+00    0.228E+01
RMM:  12    -0.711368439732E+03    0.81218E+01   -0.71226E+00 16505   0.180E+00    0.137E+01
RMM:  13    -0.716831343155E+03   -0.54629E+01   -0.16647E+00 16593   0.951E-01    0.104E+01
RMM:  14    -0.731884836575E+03   -0.15053E+02   -0.22905E+01 16437   0.269E+00    0.122E+01
RMM:  15    -0.739615760892E+03   -0.77309E+01   -0.70613E+00 16541   0.127E+00    0.100E+01
RMM:  16    -0.737581716140E+03    0.20340E+01   -0.13099E+01 16429   0.200E+00    0.650E+00
RMM:  17    -0.735917493403E+03    0.16642E+01   -0.15324E+00 17091   0.602E-01    0.577E+00
RMM:  18    -0.733814580590E+03    0.21029E+01   -0.20804E-01 17004   0.263E-01    0.560E+00
RMM:  19    -0.732198427646E+03    0.16162E+01   -0.74361E-01 16485   0.506E-01    0.400E+00
RMM:  20    -0.733065376226E+03   -0.86695E+00   -0.10375E+00 16770   0.491E-01    0.340E+00
RMM:  21    -0.736875407426E+03   -0.38100E+01   -0.71456E-01 16711   0.516E-01    0.236E+00
RMM:  22    -0.742500217172E+03   -0.56248E+01   -0.72601E-01 16509   0.479E-01    0.214E+00
RMM:  23    -0.750374829513E+03   -0.78746E+01   -0.12422E+00 16428   0.605E-01    0.176E+00
RMM:  24    -0.757384214158E+03   -0.70094E+01   -0.21383E+00 16465   0.665E-01    0.165E+00
RMM:  25    -0.761867715433E+03   -0.44835E+01   -0.14625E+00 16747   0.519E-01    0.965E-01
RMM:  26    -0.768845767246E+03   -0.69781E+01   -0.39735E+00 16862   0.719E-01    0.933E-01
RMM:  27    -0.770801323653E+03   -0.19556E+01   -0.16988E+00 17768   0.374E-01    0.574E-01
RMM:  28    -0.772016321593E+03   -0.12150E+01   -0.47273E-01 18660   0.201E-01    0.507E-01
RMM:  29    -0.773160494679E+03   -0.11442E+01   -0.32169E-01 17795   0.187E-01    0.410E-01
RMM:  30    -0.773391712669E+03   -0.23122E+00   -0.47984E-02 19473   0.598E-02    0.350E-01
RMM:  31    -0.773653670470E+03   -0.26196E+00   -0.16035E-02 18356   0.462E-02    0.224E-01
RMM:  32    -0.773978128722E+03   -0.32446E+00   -0.29996E-02 16666   0.579E-02    0.172E-01
RMM:  33    -0.774118526009E+03   -0.14040E+00   -0.15467E-02 17155   0.362E-02    0.143E-01
RMM:  34    -0.774157106951E+03   -0.38581E-01   -0.27968E-03 16949   0.180E-02    0.839E-02
RMM:  35    -0.774185196839E+03   -0.28090E-01   -0.19383E-03 15161   0.160E-02    0.484E-02
RMM:  36    -0.774195507607E+03   -0.10311E-01   -0.89374E-04 15764   0.965E-03    0.373E-02
RMM:  37    -0.774207931783E+03   -0.12424E-01   -0.41327E-04 14627   0.691E-03    0.333E-02
RMM:  38    -0.774219901139E+03   -0.11969E-01   -0.53462E-04 14804   0.815E-03    0.166E-02
RMM:  39    -0.774227159225E+03   -0.72581E-02   -0.25358E-04 14290   0.533E-03    0.164E-02
RMM:  40    -0.774230027548E+03   -0.28683E-02   -0.60647E-05 12197   0.322E-03    0.541E-03
RMM:  41    -0.774231111135E+03   -0.10836E-02   -0.24650E-05 10525   0.208E-03    0.328E-03
RMM:  42    -0.774231643160E+03   -0.53203E-03   -0.19780E-05 10130   0.184E-03    0.238E-03
RMM:  43    -0.774231716538E+03   -0.73378E-04   -0.49048E-06  7748   0.127E-03    0.223E-03
RMM:  44    -0.774231775877E+03   -0.59340E-04   -0.40123E-06  8092   0.137E-03    0.956E-04
RMM:  45    -0.774231815728E+03   -0.39851E-04   -0.37632E-06  8252   0.131E-03    0.569E-04
RMM:  46    -0.774231828539E+03   -0.12811E-04   -0.18019E-06  6451   0.911E-04    0.448E-04
RMM:  47    -0.774231834259E+03   -0.57198E-05   -0.96610E-07  5733   0.799E-04
   1 F= -.77423183E+03 E0= -.77435729E+03  d E =-.774232E+03  mag=    63.4070
       N       E                     dE             d eps       ncg     rms          rms(c)
DAV:   1    -0.774246575540E+03   -0.14747E-01   -0.32894E+01 20512   0.107E+01    0.103E+00
RMM:   2    -0.775113791004E+03   -0.86722E+00   -0.81439E+00 17382   0.205E+00    0.329E+00
RMM:   3    -0.774743413628E+03    0.37038E+00   -0.19972E-01 18723   0.394E-01    0.205E+00
RMM:   4    -0.774685464628E+03    0.57949E-01   -0.23226E-02 16460   0.989E-02    0.454E-01
RMM:   5    -0.774683695741E+03    0.17689E-02   -0.39425E-03 15828   0.404E-02    0.521E-01
RMM:   6    -0.774680985219E+03    0.27105E-02   -0.59593E-03 15259   0.402E-02    0.257E-01
RMM:   7    -0.774680176453E+03    0.80877E-03   -0.51583E-03 15106   0.326E-02    0.130E-01
RMM:   8    -0.774680419714E+03   -0.24326E-03   -0.11970E-03 15342   0.189E-02    0.873E-02
RMM:   9    -0.774680575685E+03   -0.15597E-03   -0.29275E-04 15071   0.112E-02    0.360E-02
RMM:  10    -0.774680786303E+03   -0.21062E-03   -0.37460E-05 11406   0.461E-03    0.145E-02
RMM:  11    -0.774680930445E+03   -0.14414E-03   -0.36752E-05 11005   0.309E-03    0.123E-02
RMM:  12    -0.774680975822E+03   -0.45377E-04   -0.15706E-05  8790   0.170E-03    0.101E-02
RMM:  13    -0.774680864770E+03    0.11105E-03   -0.12547E-05  9324   0.162E-03    0.739E-03
RMM:  14    -0.774680671791E+03    0.19298E-03   -0.57571E-06  8556   0.130E-03    0.508E-03
RMM:  15    -0.774680485061E+03    0.18673E-03   -0.41183E-06  7384   0.106E-03    0.323E-03
RMM:  16    -0.774680512819E+03   -0.27758E-04   -0.21639E-06  6803   0.913E-04    0.246E-03
RMM:  17    -0.774680574878E+03   -0.62059E-04   -0.41336E-06  7233   0.102E-03    0.226E-03
RMM:  18    -0.774680643600E+03   -0.68722E-04   -0.66811E-06  6219   0.887E-04    0.139E-03
RMM:  19    -0.774680723084E+03   -0.79484E-04   -0.32131E-06  5128   0.712E-04    0.139E-03
RMM:  20    -0.774680822779E+03   -0.99695E-04   -0.19396E-06  4939   0.670E-04    0.909E-04
RMM:  21    -0.774680941359E+03   -0.11858E-03   -0.21313E-06  5459   0.732E-04    0.696E-04
RMM:  22    -0.774681045235E+03   -0.10388E-03   -0.17476E-06  5934   0.800E-04    0.499E-04
RMM:  23    -0.774681120669E+03   -0.75434E-04   -0.11429E-06  5681   0.805E-04    0.317E-04
RMM:  24    -0.774681156897E+03   -0.36228E-04   -0.66929E-07  4918   0.738E-04    0.268E-04
RMM:  25    -0.774681163666E+03   -0.67694E-05   -0.22483E-07  3638   0.596E-04
   2 F= -.77468116E+03 E0= -.77480254E+03  d E =-.449329E+00  mag=    63.5005
       N       E                     dE             d eps       ncg     rms          rms(c)
DAV:   1    -0.771914392359E+03    0.27668E+01   -0.29496E+02 20320   0.322E+01    0.326E+00
RMM:   2    -0.780596703881E+03   -0.86823E+01   -0.75951E+01 17284   0.647E+00    0.133E+01
RMM:   3    -0.776489255964E+03    0.41074E+01   -0.19189E+00 18416   0.123E+00    0.528E+00
RMM:   4    -0.776075916759E+03    0.41334E+00   -0.32234E-01 16692   0.396E-01    0.192E+00
RMM:   5    -0.776036202285E+03    0.39714E-01   -0.63937E-02 16485   0.155E-01    0.177E+00
RMM:   6    -0.776023785329E+03    0.12417E-01   -0.33781E-02 16442   0.105E-01    0.870E-01
RMM:   7    -0.776014582018E+03    0.92033E-02   -0.50523E-02 16620   0.110E-01    0.592E-01
RMM:   8    -0.776009972052E+03    0.46100E-02   -0.17896E-02 16928   0.703E-02    0.342E-01
RMM:   9    -0.776010050988E+03   -0.78936E-04   -0.71774E-03 16489   0.472E-02    0.160E-01
RMM:  10    -0.776011393292E+03   -0.13423E-02   -0.10966E-03 16312   0.203E-02    0.698E-02
RMM:  11    -0.776012740798E+03   -0.13475E-02   -0.31694E-04 14511   0.103E-02    0.467E-02
RMM:  12    -0.776013292161E+03   -0.55136E-03   -0.14878E-04 12891   0.463E-03    0.398E-02
RMM:  13    -0.776013157072E+03    0.13509E-03   -0.89208E-05 11831   0.418E-03    0.206E-02
RMM:  14    -0.776012722374E+03    0.43470E-03   -0.26118E-05 10254   0.279E-03    0.199E-02
RMM:  15    -0.776011798737E+03    0.92364E-03   -0.19472E-05  9752   0.236E-03    0.131E-02
RMM:  16    -0.776011508811E+03    0.28993E-03   -0.10109E-05  8825   0.168E-03    0.993E-03
RMM:  17    -0.776011613761E+03   -0.10495E-03   -0.13204E-05  8327   0.154E-03    0.671E-03
RMM:  18    -0.776011939992E+03   -0.32623E-03   -0.35065E-05  9539   0.183E-03    0.491E-03
RMM:  19    -0.776012387818E+03   -0.44783E-03   -0.26833E-05  8083   0.156E-03    0.438E-03
RMM:  20    -0.776012879142E+03   -0.49132E-03   -0.91720E-06  7523   0.118E-03    0.342E-03
RMM:  21    -0.776013457811E+03   -0.57867E-03   -0.82714E-06  6879   0.106E-03    0.234E-03
RMM:  22    -0.776014018612E+03   -0.56080E-03   -0.10368E-05  7987   0.124E-03    0.174E-03
RMM:  23    -0.776014451235E+03   -0.43262E-03   -0.68966E-06  7600   0.126E-03    0.117E-03
RMM:  24    -0.776014686976E+03   -0.23574E-03   -0.37840E-06  7129   0.111E-03    0.528E-04
RMM:  25    -0.776014773556E+03   -0.86581E-04   -0.17209E-06  6360   0.920E-04    0.296E-04
RMM:  26    -0.776014789946E+03   -0.16390E-04   -0.48206E-07  3863   0.626E-04    0.212E-04
RMM:  27    -0.776014792912E+03   -0.29652E-05   -0.13262E-07  2640   0.533E-04
   3 F= -.77601479E+03 E0= -.77612377E+03  d E =-.178296E+01  mag=    63.7658
       N       E                     dE             d eps       ncg     rms          rms(c)
DAV:   1    -0.760115409974E+03    0.15899E+02   -0.11698E+03 20384   0.647E+01    0.721E+00
RMM:   2    -0.801513099656E+03   -0.41398E+02   -0.32686E+02 17245   0.138E+01    0.300E+01
RMM:   3    -0.780637579023E+03    0.20876E+02   -0.92013E+00 18250   0.276E+00    0.120E+01
RMM:   4    -0.778817118053E+03    0.18205E+01   -0.21465E+00 16681   0.105E+00    0.533E+00
RMM:   5    -0.778547311619E+03    0.26981E+00   -0.49567E-01 16608   0.419E-01    0.408E+00
RMM:   6    -0.778616115120E+03   -0.68804E-01   -0.22087E-01 16486   0.248E-01    0.197E+00
RMM:   7    -0.778611354757E+03    0.47604E-02   -0.19309E-01 16667   0.211E-01    0.152E+00
RMM:   8    -0.778576109091E+03    0.35246E-01   -0.10003E-01 16821   0.163E-01    0.855E-01
RMM:   9    -0.778571138684E+03    0.49704E-02   -0.28438E-02 16898   0.102E-01    0.417E-01
RMM:  10    -0.778575163432E+03   -0.40247E-02   -0.78299E-03 16904   0.535E-02    0.414E-01
RMM:  11    -0.778577448275E+03   -0.22848E-02   -0.19606E-03 16465   0.285E-02    0.144E-01
RMM:  12    -0.778578875531E+03   -0.14273E-02   -0.37787E-04 15466   0.117E-02    0.105E-01
RMM:  13    -0.778580571119E+03   -0.16956E-02   -0.30014E-04 14001   0.771E-03    0.911E-02
RMM:  14    -0.778580726534E+03   -0.15542E-03   -0.27025E-04 13504   0.647E-03    0.480E-02
RMM:  15    -0.778580280140E+03    0.44639E-03   -0.91984E-05 13202   0.466E-03    0.335E-02
RMM:  16    -0.778578496280E+03    0.17839E-02   -0.50210E-05 12376   0.408E-03    0.261E-02
RMM:  17    -0.778577123724E+03    0.13726E-02   -0.25749E-05 10357   0.302E-03    0.175E-02
RMM:  18    -0.778576905601E+03    0.21812E-03   -0.17913E-05  9683   0.210E-03    0.142E-02
RMM:  19    -0.778577599745E+03   -0.69414E-03   -0.62978E-05 10823   0.267E-03    0.114E-02
RMM:  20    -0.778578505099E+03   -0.90535E-03   -0.86554E-05 10524   0.260E-03    0.762E-03
RMM:  21    -0.778579586222E+03   -0.10811E-02   -0.47991E-05 10174   0.190E-03    0.549E-03
RMM:  22    -0.778581325426E+03   -0.17392E-02   -0.23944E-05  8357   0.151E-03    0.454E-03
RMM:  23    -0.778582879705E+03   -0.15543E-02   -0.19491E-05  8271   0.144E-03    0.406E-03
RMM:  24    -0.778583823209E+03   -0.94350E-03   -0.16289E-05  8115   0.129E-03    0.215E-03
RMM:  25    -0.778584431830E+03   -0.60862E-03   -0.14994E-05  8933   0.153E-03    0.161E-03
RMM:  26    -0.778584638310E+03   -0.20648E-03   -0.35086E-06  6630   0.966E-04    0.824E-04
RMM:  27    -0.778584688459E+03   -0.50149E-04   -0.91145E-07  5276   0.717E-04    0.521E-04
RMM:  28    -0.778584700816E+03   -0.12357E-04   -0.20445E-07  3076   0.525E-04    0.350E-04
RMM:  29    -0.778584709224E+03   -0.84082E-05   -0.13055E-07  2846   0.514E-04
   4 F= -.77858471E+03 E0= -.77867003E+03  d E =-.435287E+01  mag=    64.2457
       N       E                     dE             d eps       ncg     rms          rms(c)
DAV:   1    -0.690149426455E+03    0.88435E+02   -0.46505E+03 20360   0.131E+02    0.185E+01
RMM:   2    -0.911112127225E+03   -0.22096E+03   -0.15249E+03 17733   0.280E+01    0.488E+01
RMM:   3    -0.795238984755E+03    0.11587E+03   -0.66921E+01 16970   0.648E+00    0.361E+01
RMM:   4    -0.781820009915E+03    0.13419E+02   -0.14111E+01 16617   0.276E+00    0.942E+00
RMM:   5    -0.783462305979E+03   -0.16423E+01   -0.36897E+00 16629   0.119E+00    0.104E+01
RMM:   6    -0.783152393907E+03    0.30991E+00   -0.11581E+00 16671   0.650E-01    0.468E+00
RMM:   7    -0.783248190240E+03   -0.95796E-01   -0.70809E-01 16890   0.387E-01    0.405E+00
RMM:   8    -0.783208441991E+03    0.39748E-01   -0.86163E-02 17283   0.198E-01    0.360E+00
RMM:   9    -0.783084992309E+03    0.12345E+00   -0.41144E-01 16555   0.384E-01    0.249E+00
RMM:  10    -0.783068388166E+03    0.16604E-01   -0.90847E-02 16691   0.160E-01    0.148E+00
RMM:  11    -0.783069158767E+03   -0.77060E-03   -0.51879E-02 16725   0.127E-01    0.807E-01
RMM:  12    -0.783076431069E+03   -0.72723E-02   -0.19040E-02 16610   0.887E-02    0.292E-01
RMM:  13    -0.783078771748E+03   -0.23407E-02   -0.36153E-03 16135   0.373E-02    0.155E-01
RMM:  14    -0.783081772999E+03   -0.30013E-02   -0.52940E-04 15783   0.125E-02    0.132E-01
RMM:  15    -0.783084818534E+03   -0.30455E-02   -0.73780E-04 14445   0.113E-02    0.125E-01
RMM:  16    -0.783083990625E+03    0.82791E-03   -0.54951E-04 14026   0.913E-03    0.801E-02
RMM:  17    -0.783081314589E+03    0.26760E-02   -0.26023E-04 13770   0.677E-03    0.740E-02
RMM:  18    -0.783078024476E+03    0.32901E-02   -0.95912E-05 13462   0.590E-03    0.492E-02
RMM:  19    -0.783078079356E+03   -0.54880E-04   -0.82601E-05 11991   0.494E-03    0.293E-02
RMM:  20    -0.783078965297E+03   -0.88594E-03   -0.74919E-05 11261   0.389E-03    0.220E-02
RMM:  21    -0.783081814270E+03   -0.28490E-02   -0.21300E-04 11924   0.466E-03    0.149E-02
RMM:  22    -0.783085881009E+03   -0.40667E-02   -0.27504E-04 11911   0.434E-03    0.119E-02
RMM:  23    -0.783089139932E+03   -0.32589E-02   -0.86371E-05 10514   0.262E-03    0.818E-03
RMM:  24    -0.783093070793E+03   -0.39309E-02   -0.44969E-05  9169   0.210E-03    0.658E-03
RMM:  25    -0.783096914328E+03   -0.38435E-02   -0.53965E-05  9910   0.217E-03    0.493E-03
RMM:  26    -0.783098332789E+03   -0.14185E-02   -0.25860E-05  8782   0.152E-03    0.341E-03
RMM:  27    -0.783098947550E+03   -0.61476E-03   -0.73946E-06  7595   0.117E-03    0.265E-03
RMM:  28    -0.783099169559E+03   -0.22201E-03   -0.17401E-06  6006   0.816E-04    0.260E-03
RMM:  29    -0.783099263788E+03   -0.94229E-04   -0.12694E-06  6228   0.795E-04    0.188E-03
RMM:  30    -0.783099304528E+03   -0.40740E-04   -0.53308E-07  4056   0.601E-04    0.944E-04
RMM:  31    -0.783099338830E+03   -0.34302E-04   -0.61594E-07  4782   0.645E-04    0.768E-04
RMM:  32    -0.783099357005E+03   -0.18176E-04   -0.36008E-07  3336   0.521E-04    0.616E-04
RMM:  33    -0.783099378420E+03   -0.21414E-04   -0.69230E-07  3776   0.575E-04    0.363E-04
RMM:  34    -0.783099384150E+03   -0.57305E-05   -0.25218E-07  2606   0.522E-04
   5 F= -.78309938E+03 E0= -.78317379E+03  d E =-.886755E+01  mag=    65.0846
       N       E                     dE             d eps       ncg     rms          rms(c)
DAV:   1    -0.363555886562E+03    0.41954E+03   -0.20439E+04 20864   0.268E+02    0.572E+01
RMM:   2    -0.253967683371E+04   -0.21761E+04   -0.72958E+03 21002   0.600E+01    0.113E+02
RMM:   3    -0.924860235381E+03    0.16148E+04   -0.57374E+02 16661   0.172E+01    0.555E+01
RMM:   4    -0.807077539485E+03    0.11778E+03   -0.10362E+02 17345   0.739E+00    0.469E+01
RMM:   5    -0.795198505266E+03    0.11879E+02   -0.20168E+01 17202   0.321E+00    0.313E+01
RMM:   6    -0.776229979231E+03    0.18969E+02   -0.22411E+01 16557   0.288E+00    0.273E+01
RMM:   7    -0.771066657442E+03    0.51633E+01   -0.33842E+00 16653   0.137E+00    0.108E+01
RMM:   8    -0.780882116558E+03   -0.98155E+01   -0.53617E+00 16438   0.144E+00    0.143E+01
RMM:   9    -0.780585564868E+03    0.29655E+00   -0.23106E+00 16542   0.851E-01    0.894E+00
RMM:  10    -0.782481801086E+03   -0.18962E+01   -0.14531E+00 16779   0.601E-01    0.776E+00
RMM:  11    -0.785214445709E+03   -0.27326E+01   -0.13014E+00 16468   0.539E-01    0.749E+00
RMM:  12    -0.786067377735E+03   -0.85293E+00   -0.76428E-01 16562   0.389E-01    0.561E+00
RMM:  13    -0.786364645785E+03   -0.29727E+00   -0.37536E-01 16567   0.313E-01    0.408E+00
RMM:  14    -0.786445335217E+03   -0.80689E-01   -0.42649E-01 16643   0.421E-01    0.281E+00
RMM:  15    -0.786239286789E+03    0.20605E+00   -0.14133E-01 16846   0.204E-01    0.122E+00
RMM:  16    -0.786078832449E+03    0.16045E+00   -0.51526E-02 16546   0.129E-01    0.620E-01
RMM:  17    -0.786054627602E+03    0.24205E-01   -0.65891E-03 17072   0.487E-02    0.468E-01
RMM:  18    -0.786142151054E+03   -0.87523E-01   -0.76255E-03 16284   0.402E-02    0.382E-01
RMM:  19    -0.786259555768E+03   -0.11740E+00   -0.11653E-02 15926   0.393E-02    0.302E-01
RMM:  20    -0.786303878473E+03   -0.44323E-01   -0.85050E-03 15646   0.313E-02    0.188E-01
RMM:  21    -0.786334491112E+03   -0.30613E-01   -0.47037E-03 14598   0.212E-02    0.138E-01
RMM:  22    -0.786365364528E+03   -0.30873E-01   -0.23780E-03 14580   0.155E-02    0.175E-01
RMM:  23    -0.786395686173E+03   -0.30322E-01   -0.11424E-03 14448   0.132E-02    0.106E-01
RMM:  24    -0.786425077869E+03   -0.29392E-01   -0.58543E-04 13602   0.836E-03    0.636E-02
RMM:  25    -0.786450961243E+03   -0.25883E-01   -0.35658E-04 13665   0.679E-03    0.581E-02
RMM:  26    -0.786473613294E+03   -0.22652E-01   -0.50564E-04 14197   0.872E-03    0.693E-02
RMM:  27    -0.786487357184E+03   -0.13744E-01   -0.18891E-04 13612   0.676E-03    0.244E-02
RMM:  28    -0.786500115091E+03   -0.12758E-01   -0.13183E-04 11117   0.367E-03    0.223E-02
RMM:  29    -0.786510397462E+03   -0.10282E-01   -0.22761E-04 11559   0.375E-03    0.146E-02
RMM:  30    -0.786513263019E+03   -0.28656E-02   -0.14188E-04 10914   0.271E-03    0.819E-03
RMM:  31    -0.786513942850E+03   -0.67983E-03   -0.76130E-05 10107   0.201E-03    0.140E-02
RMM:  32    -0.786514430466E+03   -0.48762E-03   -0.49050E-05  9803   0.199E-03    0.450E-03
RMM:  33    -0.786514485270E+03   -0.54804E-04   -0.69525E-06  7698   0.103E-03    0.400E-03
RMM:  34    -0.786514545451E+03   -0.60181E-04   -0.15860E-06  6339   0.788E-04    0.343E-03
RMM:  35    -0.786514588720E+03   -0.43269E-04   -0.63921E-07  5039   0.689E-04    0.234E-03
RMM:  36    -0.786514620091E+03   -0.31372E-04   -0.48642E-07  4695   0.659E-04    0.119E-03
RMM:  37    -0.786514646540E+03   -0.26448E-04   -0.42668E-07  4653   0.647E-04    0.886E-04
RMM:  38    -0.786514665922E+03   -0.19383E-04   -0.30608E-07  4642   0.679E-04    0.698E-04
RMM:  39    -0.786514669083E+03   -0.31604E-05   -0.11127E-07  3283   0.542E-04
   6 F= -.78651467E+03 E0= -.78681543E+03  d E =-.122828E+02  mag=    67.7385
       N       E                     dE             d eps       ncg     rms          rms(c)
DAV:   1    -0.762070737250E+03    0.24444E+02   -0.15324E+03 20840   0.799E+01    0.714E+00
RMM:   2    -0.801963961279E+03   -0.39893E+02   -0.40170E+02 17051   0.159E+01    0.114E+01
RMM:   3    -0.792467358426E+03    0.94966E+01   -0.10854E+01 19203   0.321E+00    0.222E+01
RMM:   4    -0.786776609740E+03    0.56907E+01   -0.13514E+00 17235   0.814E-01    0.364E+00
RMM:   5    -0.786817317838E+03   -0.40708E-01   -0.34954E-01 16479   0.438E-01    0.233E+00
RMM:   6    -0.786783832478E+03    0.33485E-01   -0.18946E-01 16628   0.265E-01    0.180E+00
RMM:   7    -0.786763538756E+03    0.20294E-01   -0.19873E-01 16539   0.251E-01    0.161E+00
RMM:   8    -0.786748640016E+03    0.14899E-01   -0.46710E-02 16961   0.123E-01    0.135E+00
RMM:   9    -0.786720772996E+03    0.27867E-01   -0.27368E-02 16588   0.105E-01    0.740E-01
RMM:  10    -0.786711278509E+03    0.94945E-02   -0.48085E-03 17229   0.444E-02    0.220E-01
RMM:  11    -0.786713884033E+03   -0.26055E-02   -0.17532E-03 16335   0.283E-02    0.139E-01
RMM:  12    -0.786718316494E+03   -0.44325E-02   -0.74788E-04 15267   0.133E-02    0.186E-01
RMM:  13    -0.786721707376E+03   -0.33909E-02   -0.11093E-03 14289   0.114E-02    0.135E-01
RMM:  14    -0.786720399045E+03    0.13083E-02   -0.94664E-04 13635   0.884E-03    0.802E-02
RMM:  15    -0.786715260066E+03    0.51390E-02   -0.60570E-04 13562   0.941E-03    0.583E-02
RMM:  16    -0.786715418519E+03   -0.15845E-03   -0.16918E-04 13596   0.577E-03    0.438E-02
RMM:  17    -0.786718378439E+03   -0.29599E-02   -0.12519E-04 12630   0.504E-03    0.283E-02
RMM:  18    -0.786721925606E+03   -0.35472E-02   -0.13356E-04 11855   0.434E-03    0.234E-02
RMM:  19    -0.786727698478E+03   -0.57729E-02   -0.23304E-04 11855   0.432E-03    0.188E-02
RMM:  20    -0.786733079053E+03   -0.53806E-02   -0.30708E-04 11743   0.444E-03    0.139E-02
RMM:  21    -0.786736532784E+03   -0.34537E-02   -0.13546E-04 11103   0.305E-03    0.918E-03
RMM:  22    -0.786740361088E+03   -0.38283E-02   -0.37815E-05 10026   0.200E-03    0.579E-03
RMM:  23    -0.786743922057E+03   -0.35610E-02   -0.29139E-05  9581   0.213E-03    0.389E-03
RMM:  24    -0.786744940105E+03   -0.10180E-02   -0.12234E-05  9169   0.153E-03    0.269E-03
RMM:  25    -0.786745329908E+03   -0.38980E-03   -0.51955E-06  7796   0.149E-03    0.889E-04
RMM:  26    -0.786745412457E+03   -0.82549E-04   -0.21020E-06  6995   0.109E-03    0.708E-04
RMM:  27    -0.786745425248E+03   -0.12791E-04   -0.71507E-07  4967   0.703E-04    0.454E-04
RMM:  28    -0.786745430995E+03   -0.57469E-05   -0.35994E-07  4046   0.625E-04
   7 F= -.78674543E+03 E0= -.78698317E+03  d E =-.125136E+02  mag=    66.6952
       N       E                     dE             d eps       ncg     rms          rms(c)
DAV:   1    -0.784497967265E+03    0.22475E+01   -0.17785E+02 20864   0.267E+01    0.256E+00
RMM:   2    -0.789393708630E+03   -0.48957E+01   -0.42660E+01 17316   0.523E+00    0.890E+00
RMM:   3    -0.787072943721E+03    0.23208E+01   -0.11432E+00 18660   0.997E-01    0.361E+00
RMM:   4    -0.786829394331E+03    0.24355E+00   -0.14782E-01 16961   0.278E-01    0.847E-01
RMM:   5    -0.786824396788E+03    0.49975E-02   -0.25922E-02 16836   0.104E-01    0.825E-01
RMM:   6    -0.786821744858E+03    0.26519E-02   -0.32193E-02 16502   0.104E-01    0.730E-01
RMM:   7    -0.786817228616E+03    0.45162E-02   -0.10723E-02 16651   0.579E-02    0.318E-01
RMM:   8    -0.786818416425E+03   -0.11878E-02   -0.53089E-03 16022   0.468E-02    0.230E-01
RMM:   9    -0.786818452086E+03   -0.35661E-04   -0.10709E-03 16265   0.231E-02    0.720E-02
RMM:  10    -0.786818294790E+03    0.15730E-03   -0.16977E-04 14590   0.857E-03    0.414E-02
RMM:  11    -0.786817627162E+03    0.66763E-03   -0.71259E-05 11809   0.493E-03    0.387E-02
RMM:  12    -0.786816642788E+03    0.98437E-03   -0.33909E-05 10911   0.336E-03    0.276E-02
RMM:  13    -0.786815213276E+03    0.14295E-02   -0.58667E-05 12327   0.360E-03    0.187E-02
RMM:  14    -0.786814627966E+03    0.58531E-03   -0.68185E-05 10981   0.331E-03    0.147E-02
RMM:  15    -0.786814653928E+03   -0.25962E-04   -0.43702E-05  9294   0.215E-03    0.104E-02
RMM:  16    -0.786815106334E+03   -0.45241E-03   -0.28621E-05  9328   0.168E-03    0.820E-03
RMM:  17    -0.786816127502E+03   -0.10212E-02   -0.51037E-05  9807   0.195E-03    0.600E-03
RMM:  18    -0.786817059734E+03   -0.93223E-03   -0.41245E-05  8497   0.159E-03    0.425E-03
RMM:  19    -0.786817780523E+03   -0.72079E-03   -0.16529E-05  7841   0.119E-03    0.344E-03
RMM:  20    -0.786818878279E+03   -0.10978E-02   -0.16758E-05  8442   0.127E-03    0.309E-03
RMM:  21    -0.786819641262E+03   -0.76298E-03   -0.12189E-05  8304   0.127E-03    0.146E-03
RMM:  22    -0.786820061240E+03   -0.41998E-03   -0.53691E-06  6992   0.111E-03    0.157E-03
RMM:  23    -0.786820307031E+03   -0.24579E-03   -0.39613E-06  7466   0.115E-03    0.672E-04
RMM:  24    -0.786820384835E+03   -0.77804E-04   -0.20619E-06  6642   0.113E-03    0.328E-04
RMM:  25    -0.786820394396E+03   -0.95615E-05   -0.59333E-07  5027   0.739E-04
   8 F= -.78682039E+03 E0= -.78708461E+03  d E =-.125886E+02  mag=    67.0315
       N       E                     dE             d eps       ncg     rms          rms(c)
DAV:   1    -0.765708930939E+03    0.21111E+02   -0.15804E+03 20976   0.844E+01    0.714E+00
RMM:   2    -0.801618787958E+03   -0.35910E+02   -0.35842E+02 17209   0.165E+01    0.126E+01
RMM:   3    -0.792592197458E+03    0.90266E+01   -0.99869E+00 18995   0.300E+00    0.168E+01
RMM:   4    -0.788490406528E+03    0.41018E+01   -0.15060E+00 17560   0.914E-01    0.523E+00
RMM:   5    -0.788513456627E+03   -0.23050E-01   -0.33086E-01 16606   0.437E-01    0.265E+00
RMM:   6    -0.788523413509E+03   -0.99569E-02   -0.12740E-01 17038   0.205E-01    0.190E+00
RMM:   7    -0.788556433437E+03   -0.33020E-01   -0.10231E-01 16455   0.196E-01    0.107E+00
RMM:   8    -0.788547053633E+03    0.93798E-02   -0.45394E-02 17140   0.122E-01    0.681E-01
RMM:   9    -0.788542656176E+03    0.43975E-02   -0.22183E-02 16754   0.965E-02    0.379E-01
RMM:  10    -0.788546634822E+03   -0.39786E-02   -0.58449E-03 16929   0.458E-02    0.263E-01
RMM:  11    -0.788549926121E+03   -0.32913E-02   -0.96297E-04 16717   0.207E-02    0.561E-02
RMM:  12    -0.788553518069E+03   -0.35919E-02   -0.28747E-04 14638   0.931E-03    0.477E-02
RMM:  13    -0.788556943263E+03   -0.34252E-02   -0.18583E-04 13622   0.623E-03    0.369E-02
RMM:  14    -0.788560998106E+03   -0.40548E-02   -0.15754E-04 12511   0.484E-03    0.341E-02
RMM:  15    -0.788566216685E+03   -0.52186E-02   -0.31936E-04 12287   0.523E-03    0.196E-02
RMM:  16    -0.788570096930E+03   -0.38802E-02   -0.21807E-04 11404   0.376E-03    0.125E-02
RMM:  17    -0.788573529333E+03   -0.34324E-02   -0.14918E-04 11016   0.309E-03    0.968E-03
RMM:  18    -0.788576204030E+03   -0.26747E-02   -0.98203E-05 10122   0.226E-03    0.483E-03
RMM:  19    -0.788578115119E+03   -0.19111E-02   -0.52848E-05 10060   0.184E-03    0.348E-03
RMM:  20    -0.788578948590E+03   -0.83347E-03   -0.26303E-05  8807   0.165E-03    0.184E-03
RMM:  21    -0.788579224039E+03   -0.27545E-03   -0.12784E-05  9052   0.164E-03    0.153E-03
RMM:  22    -0.788579239545E+03   -0.15506E-04   -0.28724E-06  6591   0.901E-04    0.129E-03
RMM:  23    -0.788579252963E+03   -0.13417E-04   -0.12139E-06  4695   0.660E-04    0.105E-03
RMM:  24    -0.788579279950E+03   -0.26987E-04   -0.93458E-07  4083   0.580E-04    0.912E-04
RMM:  25    -0.788579322532E+03   -0.42582E-04   -0.10479E-06  5259   0.686E-04    0.632E-04
RMM:  26    -0.788579355068E+03   -0.32536E-04   -0.50206E-07  4417   0.659E-04    0.378E-04
RMM:  27    -0.788579374676E+03   -0.19609E-04   -0.29688E-07  4214   0.651E-04    0.262E-04
RMM:  28    -0.788579382319E+03   -0.76426E-05   -0.15208E-07  3183   0.556E-04
   9 F= -.78857938E+03 E0= -.78883325E+03  d E =-.175899E+01  mag=    66.8953
       N       E                     dE             d eps       ncg     rms          rms(c)
DAV:   1    -0.471065143071E+03    0.31751E+03   -0.14085E+04 21264   0.258E+02    0.320E+01
RMM:   2    -0.109488669453E+04   -0.62382E+03   -0.42424E+03 19014   0.560E+01    0.680E+01
RMM:   3    -0.797425856613E+03    0.29746E+03   -0.20494E+02 16968   0.125E+01    0.205E+01
RMM:   4    -0.795448606805E+03    0.19772E+01   -0.27535E+01 17152   0.455E+00    0.226E+01
RMM:   5    -0.791803482030E+03    0.36451E+01   -0.51130E+00 16568   0.178E+00    0.104E+01
RMM:   6    -0.793281275905E+03   -0.14778E+01   -0.34357E+00 16690   0.102E+00    0.626E+00
RMM:   7    -0.793239110203E+03    0.42166E-01   -0.60209E-01 17614   0.478E-01    0.512E+00
RMM:   8    -0.793386897793E+03   -0.14779E+00   -0.33660E-01 16759   0.430E-01    0.558E+00
RMM:   9    -0.793396778761E+03   -0.98810E-02   -0.49515E-01 16539   0.403E-01    0.370E+00
RMM:  10    -0.793204627906E+03    0.19215E+00   -0.30674E-01 16694   0.332E-01    0.120E+00
RMM:  11    -0.793252779458E+03   -0.48152E-01   -0.54652E-02 17283   0.144E-01    0.110E+00
RMM:  12    -0.793291546004E+03   -0.38767E-01   -0.13291E-02 16754   0.761E-02    0.348E-01
RMM:  13    -0.793313626509E+03   -0.22081E-01   -0.34909E-03 16776   0.346E-02    0.201E-01
RMM:  14    -0.793338087836E+03   -0.24461E-01   -0.16817E-03 15830   0.179E-02    0.207E-01
RMM:  15    -0.793365625560E+03   -0.27538E-01   -0.17432E-03 15431   0.182E-02    0.155E-01
RMM:  16    -0.793395672796E+03   -0.30047E-01   -0.23218E-03 14028   0.159E-02    0.165E-01
RMM:  17    -0.793424482600E+03   -0.28810E-01   -0.22673E-03 14360   0.139E-02    0.986E-02
RMM:  18    -0.793443424484E+03   -0.18942E-01   -0.13694E-03 14387   0.106E-02    0.290E-02
RMM:  19    -0.793457594446E+03   -0.14170E-01   -0.38646E-04 12454   0.542E-03    0.217E-02
RMM:  20    -0.793468713815E+03   -0.11119E-01   -0.47523E-04 12213   0.558E-03    0.208E-02
RMM:  21    -0.793469487577E+03   -0.77376E-03   -0.21555E-04 11502   0.336E-03    0.156E-02
RMM:  22    -0.793470172100E+03   -0.68452E-03   -0.80500E-05 10775   0.225E-03    0.882E-03
RMM:  23    -0.793470973035E+03   -0.80093E-03   -0.33406E-05 10200   0.158E-03    0.794E-03
RMM:  24    -0.793473010059E+03   -0.20370E-02   -0.26933E-05  8182   0.135E-03    0.642E-03
RMM:  25    -0.793475275888E+03   -0.22658E-02   -0.26372E-05  9881   0.149E-03    0.361E-03
RMM:  26    -0.793476483511E+03   -0.12076E-02   -0.19399E-05  8659   0.137E-03    0.264E-03
RMM:  27    -0.793476845183E+03   -0.36167E-03   -0.76016E-06  7853   0.121E-03    0.129E-03
RMM:  28    -0.793476937014E+03   -0.91831E-04   -0.21845E-06  6517   0.917E-04    0.184E-03
RMM:  29    -0.793476978164E+03   -0.41150E-04   -0.10471E-06  5422   0.778E-04    0.117E-03
RMM:  30    -0.793477002569E+03   -0.24405E-04   -0.12816E-06  5222   0.706E-04    0.745E-04
RMM:  31    -0.793477019041E+03   -0.16472E-04   -0.54490E-07  3504   0.560E-04    0.384E-04
RMM:  32    -0.793477027901E+03   -0.88601E-05   -0.29335E-07  2978   0.528E-04
  10 F= -.79347703E+03 E0= -.79370395E+03  d E =-.665663E+01  mag=    66.5545
       N       E                     dE             d eps       ncg     rms          rms(c)
DAV:   1     0.701036478424E+03    0.14945E+04   -0.65175E+04 20808   0.505E+02    0.101E+02
RMM:   2    -0.392117977813E+04   -0.46222E+04   -0.22191E+04 21130   0.123E+02    0.137E+02
RMM:   3    -0.130566612870E+04    0.26155E+04   -0.17637E+03 17250   0.330E+01    0.899E+01
RMM:   4    -0.878401604235E+03    0.42726E+03   -0.19199E+02 16829   0.117E+01    0.580E+01
RMM:   5    -0.776626034276E+03    0.10178E+03   -0.95666E+01 16791   0.697E+00    0.272E+01
RMM:   6    -0.798648513083E+03   -0.22022E+02   -0.13075E+01 17085   0.277E+00    0.326E+01
RMM:   7    -0.784432339625E+03    0.14216E+02   -0.35830E+00 18240   0.124E+00    0.229E+01
RMM:   8    -0.779967349972E+03    0.44650E+01   -0.44707E+00 16959   0.122E+00    0.101E+01
RMM:   9    -0.783796546842E+03   -0.38292E+01   -0.24716E+00 17126   0.101E+00    0.101E+01
RMM:  10    -0.784607062783E+03   -0.81052E+00   -0.67071E-01 16773   0.573E-01    0.781E+00
RMM:  11    -0.789413928807E+03   -0.48069E+01   -0.22933E+00 16590   0.833E-01    0.118E+01
RMM:  12    -0.790345857684E+03   -0.93193E+00   -0.12437E+00 16470   0.677E-01    0.439E+00
RMM:  13    -0.791435813960E+03   -0.10900E+01   -0.29391E-01 16632   0.278E-01    0.404E+00
RMM:  14    -0.793382169643E+03   -0.19464E+01   -0.44022E-01 16479   0.297E-01    0.337E+00
RMM:  15    -0.794892833751E+03   -0.15107E+01   -0.23834E-01 16693   0.182E-01    0.317E+00
RMM:  16    -0.796543663602E+03   -0.16508E+01   -0.27006E-01 16503   0.215E-01    0.271E+00
RMM:  17    -0.797138185524E+03   -0.59452E+00   -0.18540E-01 17090   0.189E-01    0.194E+00
RMM:  18    -0.797292289691E+03   -0.15410E+00   -0.97073E-02 16633   0.180E-01    0.318E+00
RMM:  19    -0.797087644113E+03    0.20465E+00   -0.25180E-02 16816   0.814E-02    0.270E+00
RMM:  20    -0.797173417818E+03   -0.85774E-01   -0.11197E-02 16592   0.688E-02    0.188E+00
RMM:  21    -0.797157389099E+03    0.16029E-01   -0.13542E-02 16471   0.851E-02    0.125E+00
RMM:  22    -0.797234545332E+03   -0.77156E-01   -0.14904E-02 16766   0.703E-02    0.364E-01
RMM:  23    -0.797310343127E+03   -0.75798E-01   -0.81937E-03 16683   0.420E-02    0.650E-01
RMM:  24    -0.797299029401E+03    0.11314E-01   -0.12917E-03 16489   0.171E-02    0.369E-01
RMM:  25    -0.797320518579E+03   -0.21489E-01   -0.15727E-03 16452   0.216E-02    0.227E-01
RMM:  26    -0.797348259571E+03   -0.27741E-01   -0.16129E-03 15115   0.152E-02    0.228E-01
RMM:  27    -0.797363851793E+03   -0.15592E-01   -0.10878E-03 14997   0.137E-02    0.185E-01
RMM:  28    -0.797375745212E+03   -0.11893E-01   -0.70570E-04 15447   0.152E-02    0.865E-02
RMM:  29    -0.797397253710E+03   -0.21508E-01   -0.37456E-04 14300   0.931E-03    0.604E-02
RMM:  30    -0.797429766434E+03   -0.32513E-01   -0.51853E-04 14830   0.101E-02    0.678E-02
RMM:  31    -0.797454971895E+03   -0.25205E-01   -0.60427E-04 12904   0.632E-03    0.100E-01
RMM:  32    -0.797465196456E+03   -0.10225E-01   -0.46410E-04 12810   0.612E-03    0.339E-02
RMM:  33    -0.797467493682E+03   -0.22972E-02   -0.16569E-04 11504   0.322E-03    0.165E-02
RMM:  34    -0.797468791941E+03   -0.12983E-02   -0.93657E-05 10723   0.222E-03    0.168E-02
RMM:  35    -0.797469060516E+03   -0.26858E-03   -0.17257E-05  9096   0.151E-03    0.681E-03
RMM:  36    -0.797469299499E+03   -0.23898E-03   -0.54385E-06  7517   0.101E-03    0.273E-03
RMM:  37    -0.797469592025E+03   -0.29253E-03   -0.29604E-06  6515   0.878E-04    0.178E-03
RMM:  38    -0.797469816263E+03   -0.22424E-03   -0.20615E-06  6818   0.876E-04    0.192E-03
RMM:  39    -0.797469982430E+03   -0.16617E-03   -0.19090E-06  7519   0.992E-04    0.213E-03
RMM:  40    -0.797470070911E+03   -0.88481E-04   -0.14579E-06  6570   0.101E-03    0.120E-03
RMM:  41    -0.797470090214E+03   -0.19303E-04   -0.54840E-07  4980   0.706E-04    0.890E-04
RMM:  42    -0.797470093386E+03   -0.31721E-05   -0.14532E-07  3206   0.525E-04
  11 F= -.79747009E+03 E0= -.79766142E+03  d E =-.106497E+02  mag=    65.2818
       N       E                     dE             d eps       ncg     rms          rms(c)
DAV:   1    -0.734324283588E+03    0.63146E+02   -0.38870E+03 21296   0.139E+02    0.110E+01
RMM:   2    -0.834640547018E+03   -0.10032E+03   -0.96708E+02 17318   0.275E+01    0.252E+01
RMM:   3    -0.802278908206E+03    0.32362E+02   -0.24416E+01 18853   0.517E+00    0.181E+01
RMM:   4    -0.797220121338E+03    0.50588E+01   -0.44893E+00 16934   0.169E+00    0.503E+00
RMM:   5    -0.797535674429E+03   -0.31555E+00   -0.90455E-01 16863   0.620E-01    0.455E+00
RMM:   6    -0.797639570352E+03   -0.10390E+00   -0.22936E-01 16547   0.322E-01    0.287E+00
RMM:   7    -0.797709681480E+03   -0.70111E-01   -0.25593E-01 16792   0.274E-01    0.239E+00
RMM:   8    -0.797661158300E+03    0.48523E-01   -0.14902E-01 16871   0.257E-01    0.118E+00
RMM:   9    -0.797617363648E+03    0.43795E-01   -0.52854E-02 16680   0.152E-01    0.839E-01
RMM:  10    -0.797599500227E+03    0.17863E-01   -0.15570E-02 16726   0.843E-02    0.546E-01
RMM:  11    -0.797596139257E+03    0.33610E-02   -0.66571E-03 16715   0.513E-02    0.176E-01
RMM:  12    -0.797605905552E+03   -0.97663E-02   -0.91823E-04 17137   0.188E-02    0.145E-01
RMM:  13    -0.797620362903E+03   -0.14457E-01   -0.86143E-04 15367   0.147E-02    0.886E-02
RMM:  14    -0.797634004515E+03   -0.13642E-01   -0.81412E-04 13772   0.105E-02    0.792E-02
RMM:  15    -0.797644779968E+03   -0.10775E-01   -0.67340E-04 12846   0.827E-03    0.798E-02
RMM:  16    -0.797657389062E+03   -0.12609E-01   -0.11153E-03 13105   0.996E-03    0.595E-02
RMM:  17    -0.797665107676E+03   -0.77186E-02   -0.51811E-04 12933   0.672E-03    0.316E-02
RMM:  18    -0.797671539160E+03   -0.64315E-02   -0.20759E-04 12309   0.460E-03    0.212E-02
RMM:  19    -0.797677027091E+03   -0.54879E-02   -0.12090E-04 11658   0.326E-03    0.160E-02
RMM:  20    -0.797681684484E+03   -0.46574E-02   -0.62831E-05 10851   0.237E-03    0.121E-02
RMM:  21    -0.797685530738E+03   -0.38463E-02   -0.36570E-05 10150   0.201E-03    0.885E-03
RMM:  22    -0.797687488337E+03   -0.19576E-02   -0.10453E-05  8728   0.147E-03    0.676E-03
RMM:  23    -0.797689094059E+03   -0.16057E-02   -0.18428E-05  9746   0.195E-03    0.517E-03
RMM:  24    -0.797690558075E+03   -0.14640E-02   -0.48121E-05  9775   0.176E-03    0.276E-03
RMM:  25    -0.797691177787E+03   -0.61971E-03   -0.33335E-05  8661   0.154E-03    0.166E-03
RMM:  26    -0.797691400799E+03   -0.22301E-03   -0.10873E-05  8183   0.118E-03    0.104E-03
RMM:  27    -0.797691505069E+03   -0.10427E-03   -0.38547E-06  7711   0.107E-03    0.764E-04
RMM:  28    -0.797691526342E+03   -0.21273E-04   -0.10610E-06  4861   0.694E-04    0.506E-04
RMM:  29    -0.797691544953E+03   -0.18611E-04   -0.69166E-07  5042   0.675E-04    0.348E-04
RMM:  30    -0.797691559461E+03   -0.14508E-04   -0.37087E-07  3596   0.556E-04    0.296E-04
RMM:  31    -0.797691566095E+03   -0.66338E-05   -0.22759E-07  2818   0.494E-04
  12 F= -.79769157E+03 E0= -.79789548E+03  d E =-.108712E+02  mag=    66.0173
       N       E                     dE             d eps       ncg     rms          rms(c)
DAV:   1    -0.793364170435E+03    0.43274E+01   -0.35271E+02 21016   0.410E+01    0.304E+00
RMM:   2    -0.800465510733E+03   -0.71013E+01   -0.72846E+01 17191   0.740E+00    0.292E+00
RMM:   3    -0.798413203925E+03    0.20523E+01   -0.18503E+00 19290   0.137E+00    0.609E+00
RMM:   4    -0.797756884667E+03    0.65632E+00   -0.20323E-01 17531   0.326E-01    0.217E+00
RMM:   5    -0.797736838938E+03    0.20046E-01   -0.33320E-02 16839   0.139E-01    0.108E+00
RMM:   6    -0.797718433648E+03    0.18405E-01   -0.30399E-02 16861   0.105E-01    0.598E-01
RMM:   7    -0.797715844306E+03    0.25893E-02   -0.13772E-02 16386   0.793E-02    0.406E-01
RMM:   8    -0.797711272134E+03    0.45722E-02   -0.53709E-03 16854   0.467E-02    0.193E-01
RMM:   9    -0.797710150753E+03    0.11214E-02   -0.15473E-03 16189   0.252E-02    0.102E-01
RMM:  10    -0.797712240372E+03   -0.20896E-02   -0.33736E-04 15627   0.124E-02    0.376E-02
RMM:  11    -0.797713733961E+03   -0.14936E-02   -0.61235E-05 12891   0.498E-03    0.217E-02
RMM:  12    -0.797715648863E+03   -0.19149E-02   -0.75304E-05 11450   0.384E-03    0.195E-02
RMM:  13    -0.797718179302E+03   -0.25304E-02   -0.14598E-04 11809   0.423E-03    0.162E-02
RMM:  14    -0.797720118709E+03   -0.19394E-02   -0.13307E-04 11099   0.325E-03    0.966E-03
RMM:  15    -0.797722098001E+03   -0.19793E-02   -0.12501E-04 10580   0.281E-03    0.663E-03
RMM:  16    -0.797723663774E+03   -0.15658E-02   -0.62012E-05  9602   0.191E-03    0.448E-03
RMM:  17    -0.797725198387E+03   -0.15346E-02   -0.27061E-05  8989   0.153E-03    0.286E-03
RMM:  18    -0.797726204356E+03   -0.10060E-02   -0.23601E-05  9005   0.147E-03    0.164E-03
RMM:  19    -0.797726533614E+03   -0.32926E-03   -0.81052E-06  7813   0.114E-03    0.994E-04
RMM:  20    -0.797726623089E+03   -0.89475E-04   -0.16603E-06  5668   0.785E-04    0.720E-04
RMM:  21    -0.797726667484E+03   -0.44396E-04   -0.53658E-07  4764   0.663E-04    0.562E-04
RMM:  22    -0.797726714251E+03   -0.46766E-04   -0.25881E-07  4528   0.653E-04    0.463E-04
RMM:  23    -0.797726760296E+03   -0.46046E-04   -0.30839E-07  4797   0.697E-04    0.408E-04
RMM:  24    -0.797726796224E+03   -0.35928E-04   -0.44029E-07  5816   0.758E-04    0.351E-04
RMM:  25    -0.797726811219E+03   -0.14995E-04   -0.33064E-07  4659   0.665E-04    0.232E-04
RMM:  26    -0.797726815138E+03   -0.39192E-05   -0.14702E-07  3720   0.548E-04
  13 F= -.79772682E+03 E0= -.79792818E+03  d E =-.109064E+02  mag=    65.8731
       N       E                     dE             d eps       ncg     rms          rms(c)
DAV:   1    -0.783291541456E+03    0.14435E+02   -0.96967E+02 20744   0.602E+01    0.605E+00
RMM:   2    -0.811553376181E+03   -0.28262E+02   -0.24696E+02 17261   0.131E+01    0.198E+01
RMM:   3    -0.798955443800E+03    0.12598E+02   -0.69764E+00 18578   0.240E+00    0.697E+00
RMM:   4    -0.797805080051E+03    0.11504E+01   -0.11361E+00 16670   0.806E-01    0.273E+00
RMM:   5    -0.797780545634E+03    0.24534E-01   -0.21824E-01 16547   0.309E-01    0.208E+00
RMM:   6    -0.797805519202E+03   -0.24974E-01   -0.13644E-01 16555   0.217E-01    0.155E+00
RMM:   7    -0.797771309114E+03    0.34210E-01   -0.94908E-02 16972   0.157E-01    0.783E-01
RMM:   8    -0.797765355903E+03    0.59532E-02   -0.36908E-02 16913   0.114E-01    0.424E-01
RMM:   9    -0.797767657745E+03   -0.23018E-02   -0.72206E-03 17171   0.552E-02    0.237E-01
RMM:  10    -0.797773334089E+03   -0.56763E-02   -0.21006E-03 16856   0.299E-02    0.125E-01
RMM:  11    -0.797777504771E+03   -0.41707E-02   -0.56520E-04 15833   0.157E-02    0.358E-02
RMM:  12    -0.797780808046E+03   -0.33033E-02   -0.14016E-04 13373   0.569E-03    0.242E-02
RMM:  13    -0.797784350931E+03   -0.35429E-02   -0.96158E-05 12214   0.434E-03    0.184E-02
RMM:  14    -0.797787254607E+03   -0.29037E-02   -0.90052E-05 10975   0.315E-03    0.134E-02
RMM:  15    -0.797791060335E+03   -0.38057E-02   -0.14568E-04 11190   0.326E-03    0.101E-02
RMM:  16    -0.797793689463E+03   -0.26291E-02   -0.10558E-04  9914   0.246E-03    0.773E-03
RMM:  17    -0.797796332277E+03   -0.26428E-02   -0.10390E-04 10077   0.244E-03    0.600E-03
RMM:  18    -0.797797963802E+03   -0.16315E-02   -0.64977E-05  9294   0.182E-03    0.471E-03
RMM:  19    -0.797798927913E+03   -0.96411E-03   -0.26966E-05  8791   0.146E-03    0.308E-03
RMM:  20    -0.797799182370E+03   -0.25446E-03   -0.52768E-06  6761   0.963E-04    0.206E-03
RMM:  21    -0.797799371414E+03   -0.18904E-03   -0.17460E-06  6839   0.103E-03    0.166E-03
RMM:  22    -0.797799475566E+03   -0.10415E-03   -0.12790E-06  6293   0.103E-03    0.141E-03
RMM:  23    -0.797799537975E+03   -0.62409E-04   -0.11371E-06  6866   0.997E-04    0.108E-03
RMM:  24    -0.797799597286E+03   -0.59311E-04   -0.77986E-07  4577   0.691E-04    0.903E-04
RMM:  25    -0.797799669874E+03   -0.72588E-04   -0.18366E-06  6732   0.876E-04    0.652E-04
RMM:  26    -0.797799694771E+03   -0.24898E-04   -0.91542E-07  4877   0.651E-04    0.376E-04
RMM:  27    -0.797799707467E+03   -0.12695E-04   -0.54876E-07  3467   0.522E-04    0.262E-04
RMM:  28    -0.797799713516E+03   -0.60487E-05   -0.28205E-07  2536   0.450E-04
  14 F= -.79779971E+03 E0= -.79801821E+03  d E =-.728984E-01  mag=    65.5066
       N       E                     dE             d eps       ncg     rms          rms(c)
DAV:   1    -0.796400924311E+03    0.13988E+01   -0.11332E+02 20576   0.207E+01    0.181E+00
RMM:   2    -0.798979983935E+03   -0.25791E+01   -0.25536E+01 17181   0.385E+00    0.335E+00
RMM:   3    -0.798074268702E+03    0.90572E+00   -0.69140E-01 19283   0.754E-01    0.354E+00
RMM:   4    -0.797840690428E+03    0.23358E+00   -0.61978E-02 16897   0.161E-01    0.696E-01
RMM:   5    -0.797833525953E+03    0.71645E-02   -0.12877E-02 16847   0.804E-02    0.588E-01
RMM:   6    -0.797827643871E+03    0.58821E-02   -0.13798E-02 16389   0.758E-02    0.356E-01
RMM:   7    -0.797824990873E+03    0.26530E-02   -0.88297E-03 16051   0.470E-02    0.283E-01
RMM:   8    -0.797822802174E+03    0.21887E-02   -0.36995E-03 15792   0.392E-02    0.142E-01
RMM:   9    -0.797821257895E+03    0.15443E-02   -0.43726E-04 15227   0.120E-02    0.585E-02
RMM:  10    -0.797820462172E+03    0.79572E-03   -0.11000E-04 14200   0.694E-03    0.306E-02
RMM:  11    -0.797820751393E+03   -0.28922E-03   -0.26961E-05 10354   0.333E-03    0.228E-02
RMM:  12    -0.797821462533E+03   -0.71114E-03   -0.34348E-05 10163   0.296E-03    0.159E-02
RMM:  13    -0.797822451777E+03   -0.98924E-03   -0.89678E-05 10859   0.323E-03    0.118E-02
RMM:  14    -0.797823024858E+03   -0.57308E-03   -0.58574E-05 10001   0.229E-03    0.878E-03
RMM:  15    -0.797823559933E+03   -0.53508E-03   -0.26812E-05  9517   0.182E-03    0.541E-03
RMM:  16    -0.797824137409E+03   -0.57748E-03   -0.11734E-05  8624   0.132E-03    0.424E-03
RMM:  17    -0.797824842010E+03   -0.70460E-03   -0.95252E-06  7859   0.119E-03    0.324E-03
RMM:  18    -0.797825423159E+03   -0.58115E-03   -0.62248E-06  7134   0.102E-03    0.227E-03
RMM:  19    -0.797825854254E+03   -0.43110E-03   -0.30441E-06  6248   0.844E-04    0.169E-03
RMM:  20    -0.797826245009E+03   -0.39075E-03   -0.34924E-06  6856   0.101E-03    0.128E-03
RMM:  21    -0.797826466967E+03   -0.22196E-03   -0.41252E-06  7797   0.111E-03    0.782E-04
RMM:  22    -0.797826576491E+03   -0.10952E-03   -0.29501E-06  5451   0.804E-04    0.547E-04
RMM:  23    -0.797826635097E+03   -0.58607E-04   -0.22303E-06  6429   0.884E-04    0.370E-04
RMM:  24    -0.797826663287E+03   -0.28190E-04   -0.12034E-06  5581   0.769E-04    0.230E-04
RMM:  25    -0.797826669842E+03   -0.65544E-05   -0.46041E-07  4425   0.620E-04
  15 F= -.79782667E+03 E0= -.79804292E+03  d E =-.998547E-01  mag=    65.7273
